<?xml version="1.0" encoding="UTF-8"?>

<!-- generated on Wed May 12 04:14:59 2021 by Eclipse SUMO Version 1.6.0
<configuration xmlns:xsi="http://www.w3.org/2001/XMLSchema-instance" xsi:noNamespaceSchemaLocation="http://sumo.dlr.de/xsd/sumoConfiguration.xsd">

    <input>
        <net-file value="sumo/intersection.net.xml"/>
        <route-files value="sumo/inter.rou.xml"/>
        <additional-files value="sumo/intersection.add.xml"/>
    </input>

    <output>
        <summary-output value="sumo/summary.xml"/>
    </output>

    <time>
        <begin value="0"/>
        <end value="120"/>
    </time>

    <processing>
        <collision.action value="teleport"/>
        <collision.stoptime value="2"/>
        <collision.check-junctions value="true"/>
        <time-to-teleport value="120"/>
    </processing>

    <traci_server>
        <remote-port value="64315"/>
    </traci_server>

    <random_number>
        <random value="true"/>
    </random_number>

</configuration>
-->

<meandata xmlns:xsi="http://www.w3.org/2001/XMLSchema-instance" xsi:noNamespaceSchemaLocation="http://sumo.dlr.de/xsd/meandata_file.xsd">
    <interval begin="0.00" end="10.00" id="1i">
        <edge id="1i" sampledSeconds="25.00" traveltime="28.00" overlapTraveltime="28.26" density="5.14" laneDensity="1.28" occupancy="0.58" waitingTime="0.00" speed="17.37" departed="5" arrived="0" entered="0" left="0" laneChangedFrom="0" laneChangedTo="0"/>
        <edge id="2i" sampledSeconds="25.00" traveltime="27.85" overlapTraveltime="28.11" density="5.14" laneDensity="1.28" occupancy="0.58" waitingTime="0.00" speed="17.47" departed="5" arrived="0" entered="0" left="0" laneChangedFrom="0" laneChangedTo="0"/>
        <edge id="3i" sampledSeconds="25.00" traveltime="30.50" overlapTraveltime="30.78" density="5.14" laneDensity="1.28" occupancy="0.58" waitingTime="0.00" speed="15.95" departed="5" arrived="0" entered="0" left="0" laneChangedFrom="0" laneChangedTo="0"/>
        <edge id="4i" sampledSeconds="25.00" traveltime="48.60" overlapTraveltime="49.05" density="5.14" laneDensity="1.28" occupancy="0.58" waitingTime="0.00" speed="10.01" departed="5" arrived="0" entered="0" left="0" laneChangedFrom="0" laneChangedTo="0"/>
    </interval>
    <interval begin="10.00" end="20.00" id="1i">
        <edge id="1i" sampledSeconds="63.00" traveltime="28.62" overlapTraveltime="28.88" density="12.95" laneDensity="3.24" occupancy="1.46" waitingTime="0.00" speed="17.00" departed="3" arrived="0" entered="0" left="0" laneChangedFrom="4" laneChangedTo="4"/>
        <edge id="2i" sampledSeconds="63.00" traveltime="26.59" overlapTraveltime="26.83" density="12.95" laneDensity="3.24" occupancy="1.46" waitingTime="0.00" speed="18.29" departed="3" arrived="0" entered="0" left="0" laneChangedFrom="0" laneChangedTo="0"/>
        <edge id="3i" sampledSeconds="63.00" traveltime="27.43" overlapTraveltime="27.69" density="12.95" laneDensity="3.24" occupancy="1.46" waitingTime="0.00" speed="17.73" departed="3" arrived="0" entered="0" left="0" laneChangedFrom="0" laneChangedTo="0"/>
        <edge id="4i" sampledSeconds="63.00" traveltime="46.62" overlapTraveltime="47.05" density="12.95" laneDensity="3.24" occupancy="1.46" waitingTime="0.00" speed="10.43" departed="3" arrived="0" entered="0" left="0" laneChangedFrom="2" laneChangedTo="2"/>
    </interval>
    <interval begin="20.00" end="30.00" id="1i">
        <edge id="1i" sampledSeconds="96.68" traveltime="26.68" overlapTraveltime="26.92" density="19.88" laneDensity="4.97" occupancy="2.23" waitingTime="4.00" speed="18.23" departed="4" arrived="0" entered="0" left="2" laneChangedFrom="0" laneChangedTo="0"/>
        <edge id="1o" sampledSeconds="2.04" traveltime="24.32" overlapTraveltime="24.55" density="0.42" laneDensity="0.11" occupancy="0.04" waitingTime="0.00" speed="20.00" departed="0" arrived="0" entered="1" left="0" laneChangedFrom="0" laneChangedTo="0"/>
        <edge id="2i" sampledSeconds="96.82" traveltime="27.99" overlapTraveltime="28.24" density="19.91" laneDensity="4.98" occupancy="2.24" waitingTime="4.00" speed="17.38" departed="4" arrived="0" entered="0" left="1" laneChangedFrom="0" laneChangedTo="0"/>
        <edge id="2o" sampledSeconds="2.18" traveltime="24.32" overlapTraveltime="24.54" density="0.45" laneDensity="0.11" occupancy="0.05" waitingTime="0.00" speed="20.00" departed="0" arrived="0" entered="1" left="0" laneChangedFrom="0" laneChangedTo="0"/>
        <edge id="3i" sampledSeconds="100.00" traveltime="29.88" overlapTraveltime="30.16" density="20.56" laneDensity="5.14" occupancy="2.31" waitingTime="9.00" speed="16.28" departed="4" arrived="0" entered="0" left="0" laneChangedFrom="1" laneChangedTo="1"/>
        <edge id="4i" sampledSeconds="100.00" traveltime="45.76" overlapTraveltime="46.18" density="20.56" laneDensity="5.14" occupancy="2.31" waitingTime="0.00" speed="10.63" departed="4" arrived="0" entered="0" left="0" laneChangedFrom="2" laneChangedTo="2"/>
    </interval>
    <interval begin="30.00" end="40.00" id="1i">
        <edge id="1i" sampledSeconds="110.09" traveltime="28.93" overlapTraveltime="29.44" density="22.63" laneDensity="5.66" occupancy="2.53" waitingTime="10.00" speed="16.67" departed="3" arrived="0" entered="0" left="2" laneChangedFrom="3" laneChangedTo="3"/>
        <edge id="1o" sampledSeconds="18.55" traveltime="24.32" overlapTraveltime="24.54" density="3.81" laneDensity="0.95" occupancy="0.43" waitingTime="0.00" speed="20.00" departed="0" arrived="0" entered="3" left="0" laneChangedFrom="0" laneChangedTo="0"/>
        <edge id="2i" sampledSeconds="107.94" traveltime="29.59" overlapTraveltime="30.11" density="22.19" laneDensity="5.55" occupancy="2.48" waitingTime="12.00" speed="16.30" departed="3" arrived="0" entered="0" left="3" laneChangedFrom="2" laneChangedTo="2"/>
        <edge id="2o" sampledSeconds="18.76" traveltime="24.32" overlapTraveltime="24.54" density="3.86" laneDensity="0.96" occupancy="0.43" waitingTime="0.00" speed="20.00" departed="0" arrived="0" entered="1" left="0" laneChangedFrom="0" laneChangedTo="0"/>
        <edge id="3i" sampledSeconds="133.00" traveltime="37.12" overlapTraveltime="37.46" density="27.34" laneDensity="6.84" occupancy="3.08" waitingTime="34.00" speed="13.10" departed="3" arrived="0" entered="0" left="4" laneChangedFrom="3" laneChangedTo="3"/>
        <edge id="3o" sampledSeconds="6.09" traveltime="26.65" overlapTraveltime="26.90" density="1.25" laneDensity="0.31" occupancy="0.13" waitingTime="0.00" speed="18.25" departed="0" arrived="0" entered="2" left="0" laneChangedFrom="0" laneChangedTo="0"/>
        <edge id="4i" sampledSeconds="137.00" traveltime="43.92" overlapTraveltime="44.32" density="28.17" laneDensity="7.04" occupancy="3.17" waitingTime="0.00" speed="11.08" departed="3" arrived="0" entered="0" left="0" laneChangedFrom="4" laneChangedTo="4"/>
        <edge id="4o" sampledSeconds="7.37" traveltime="25.88" overlapTraveltime="26.12" density="1.52" laneDensity="0.38" occupancy="0.16" waitingTime="0.00" speed="18.79" departed="0" arrived="0" entered="4" left="0" laneChangedFrom="0" laneChangedTo="0"/>
    </interval>
    <interval begin="40.00" end="50.00" id="1i">
        <edge id="1i" sampledSeconds="120.24" traveltime="33.03" overlapTraveltime="33.31" density="24.72" laneDensity="6.18" occupancy="2.78" waitingTime="23.00" speed="14.74" departed="5" arrived="0" entered="0" left="3" laneChangedFrom="5" laneChangedTo="5"/>
        <edge id="1o" sampledSeconds="50.00" traveltime="24.32" overlapTraveltime="24.55" density="10.28" laneDensity="2.57" occupancy="1.16" waitingTime="0.00" speed="20.00" departed="0" arrived="0" entered="2" left="0" laneChangedFrom="0" laneChangedTo="0"/>
        <edge id="2i" sampledSeconds="117.17" traveltime="31.25" overlapTraveltime="31.52" density="24.09" laneDensity="6.02" occupancy="2.71" waitingTime="17.00" speed="15.58" departed="5" arrived="0" entered="0" left="3" laneChangedFrom="1" laneChangedTo="1"/>
        <edge id="2o" sampledSeconds="28.00" traveltime="24.32" overlapTraveltime="24.54" density="5.76" laneDensity="1.44" occupancy="0.65" waitingTime="0.00" speed="20.00" departed="0" arrived="0" entered="2" left="0" laneChangedFrom="0" laneChangedTo="0"/>
        <edge id="3i" sampledSeconds="125.75" traveltime="31.51" overlapTraveltime="32.55" density="25.85" laneDensity="6.46" occupancy="2.87" waitingTime="19.00" speed="15.08" departed="5" arrived="0" entered="0" left="3" laneChangedFrom="1" laneChangedTo="1"/>
        <edge id="3o" sampledSeconds="30.53" traveltime="24.32" overlapTraveltime="24.54" density="6.28" laneDensity="1.57" occupancy="0.70" waitingTime="0.00" speed="20.00" departed="0" arrived="0" entered="3" left="0" laneChangedFrom="0" laneChangedTo="0"/>
        <edge id="4i" sampledSeconds="165.27" traveltime="45.08" overlapTraveltime="45.62" density="33.98" laneDensity="8.49" occupancy="3.80" waitingTime="4.00" speed="10.76" departed="5" arrived="0" entered="0" left="3" laneChangedFrom="2" laneChangedTo="2"/>
        <edge id="4o" sampledSeconds="47.32" traveltime="24.60" overlapTraveltime="24.82" density="9.73" laneDensity="2.43" occupancy="1.08" waitingTime="0.00" speed="19.78" departed="0" arrived="0" entered="4" left="0" laneChangedFrom="0" laneChangedTo="0"/>
    </interval>
    <interval begin="50.00" end="60.00" id="1i">
        <edge id="1i" sampledSeconds="131.00" traveltime="36.87" overlapTraveltime="37.21" density="26.93" laneDensity="6.73" occupancy="3.03" waitingTime="36.00" speed="13.19" departed="3" arrived="0" entered="0" left="2" laneChangedFrom="5" laneChangedTo="5"/>
        <edge id="1o" sampledSeconds="62.50" traveltime="24.32" overlapTraveltime="24.55" density="12.85" laneDensity="3.21" occupancy="1.44" waitingTime="0.00" speed="20.00" departed="0" arrived="2" entered="4" left="0" laneChangedFrom="0" laneChangedTo="1"/>
        <edge id="2i" sampledSeconds="137.00" traveltime="36.44" overlapTraveltime="36.78" density="28.17" laneDensity="7.04" occupancy="3.17" waitingTime="39.00" speed="13.35" departed="3" arrived="0" entered="0" left="2" laneChangedFrom="2" laneChangedTo="2"/>
        <edge id="2o" sampledSeconds="53.25" traveltime="25.71" overlapTraveltime="25.93" density="10.95" laneDensity="2.74" occupancy="1.21" waitingTime="0.00" speed="18.93" departed="0" arrived="2" entered="4" left="0" laneChangedFrom="0" laneChangedTo="0"/>
        <edge id="3i" sampledSeconds="119.89" traveltime="30.14" overlapTraveltime="30.38" density="24.65" laneDensity="6.16" occupancy="2.77" waitingTime="9.00" speed="16.16" departed="3" arrived="0" entered="0" left="5" laneChangedFrom="0" laneChangedTo="0"/>
        <edge i</meandata>
edSeconds="57.63" traveltime="24.32" overlapTraveltime="24.54" density="11.85" laneDensity="2.96" occupancy="1.32" waitingTime="0.00" speed="20.00" departed="0" arrived="0" entered="4" left="0" laneChangedFrom="0" laneChangedTo="0"/>
        <edge id="4i" sampledSeconds="166.67" traveltime="42.38" overlapTraveltime="42.52" density="34.27" laneDensity="8.57" occupancy="3.84" waitingTime="0.00" speed="11.55" departed="3" arrived="0" entered="0" left="6" laneChangedFrom="4" laneChangedTo="4"/>
        <edge id="4o" sampledSeconds="84.70" traveltime="24.67" overlapTraveltime="24.90" density="17.41" laneDensity="4.35" occupancy="1.95" waitingTime="0.00" speed="19.72" departed="0" arrived="0" entered="3" left="1" laneChangedFrom="0" laneChangedTo="0" vaporized="1"/>
    </interval>
    <interval begin="60.00" end="61.00" id="1i">
        <edge id="1i" sampledSeconds="14.00" traveltime="39.63" overlapTraveltime="40.00" density="28.78" laneDensity="7.20" occupancy="3.24" waitingTime="4.00" speed="12.27" departed="0" arrived="0" entered="0" left="2" laneChangedFrom="1" laneChangedTo="1"/>
        <edge id="1o" sampledSeconds="8.00" traveltime="24.32" overlapTraveltime="24.54" density="16.45" laneDensity="4.11" occupancy="1.85" waitingTime="0.00" speed="20.00" departed="0" arrived="0" entered="2" left="0" laneChangedFrom="0" laneChangedTo="0"/>
        <edge id="2i" sampledSeconds="14.00" traveltime="39.46" overlapTraveltime="39.83" density="28.78" laneDensity="7.20" occupancy="3.24" waitingTime="5.00" speed="12.33" departed="0" arrived="0" entered="0" left="2" laneChangedFrom="1" laneChangedTo="1"/>
        <edge id="2o" sampledSeconds="6.06" traveltime="24.32" overlapTraveltime="24.55" density="12.46" laneDensity="3.11" occupancy="1.39" waitingTime="0.00" speed="20.00" departed="0" arrived="0" entered="3" left="0" laneChangedFrom="0" laneChangedTo="0"/>
        <edge id="3i" sampledSeconds="11.00" traveltime="26.39" overlapTraveltime="26.64" density="22.62" laneDensity="5.65" occupancy="2.54" waitingTime="0.00" speed="18.43" departed="0" arrived="0" entered="0" left="0" laneChangedFrom="0" laneChangedTo="0"/>
        <edge id="3o" sampledSeconds="8.91" traveltime="24.32" overlapTraveltime="24.55" density="18.32" laneDensity="4.58" occupancy="2.04" waitingTime="0.00" speed="20.00" departed="0" arrived="1" entered="0" left="0" laneChangedFrom="0" laneChangedTo="0"/>
        <edge id="4i" sampledSeconds="14.00" traveltime="45.33" overlapTraveltime="45.75" density="28.78" laneDensity="7.20" occupancy="3.24" waitingTime="0.00" speed="10.73" departed="0" arrived="0" entered="0" left="0" laneChangedFrom="0" laneChangedTo="0"/>
        <edge id="4o" sampledSeconds="10.00" traveltime="24.32" overlapTraveltime="24.55" density="20.56" laneDensity="5.14" occupancy="2.31" waitingTime="0.00" speed="20.00" departed="0" arrived="0" entered="0" left="0" laneChangedFrom="0" laneChangedTo="0"/>
    </interval>
</meandata>
