<?xml version="1.0" encoding="UTF-8"?>

<!-- generated on Tue Apr 20 14:36:01 2021 by Eclipse SUMO Version 1.6.0
<configuration xmlns:xsi="http://www.w3.org/2001/XMLSchema-instance" xsi:noNamespaceSchemaLocation="http://sumo.dlr.de/xsd/sumoConfiguration.xsd">

    <input>
        <net-file value="sumo/intersection.net.xml"/>
        <route-files value="sumo/inter.rou.xml"/>
        <additional-files value="sumo/intersection.add.xml"/>
    </input>

    <output>
        <summary-output value="sumo/summary.xml"/>
    </output>

    <time>
        <begin value="0"/>
        <end value="120"/>
    </time>

    <processing>
        <collision.action value="teleport"/>
        <collision.stoptime value="2"/>
        <collision.check-junctions value="true"/>
        <time-to-teleport value="120"/>
    </processing>

    <traci_server>
        <remote-port value="59940"/>
    </traci_server>

    <random_number>
        <random value="true"/>
    </random_number>

</configuration>
-->

<meandata xmlns:xsi="http://www.w3.org/2001/XMLSchema-instance" xsi:noNamespaceSchemaLocation="http://sumo.dlr.de/xsd/meandata_file.xsd">
    <interval begin="0.00" end="10.00" id="1i">
        <edge id="1i" sampledSeconds="25.00" traveltime="26.04" overlapTraveltime="26.28" density="5.14" laneDensity="1.28" occupancy="0.58" waitingTime="0.00" speed="18.68" departed="5" arrived="0" entered="0" left="0" laneChangedFrom="0" laneChangedTo="0"/>
        <edge id="2i" sampledSeconds="25.00" traveltime="32.80" overlapTraveltime="33.10" density="5.14" laneDensity="1.28" occupancy="0.58" waitingTime="0.00" speed="14.83" departed="5" arrived="0" entered="0" left="0" laneChangedFrom="0" laneChangedTo="0"/>
        <edge id="3i" sampledSeconds="25.00" traveltime="34.27" overlapTraveltime="34.59" density="5.14" laneDensity="1.28" occupancy="0.58" waitingTime="0.00" speed="14.19" departed="5" arrived="0" entered="0" left="0" laneChangedFrom="0" laneChangedTo="0"/>
        <edge id="4i" sampledSeconds="25.00" traveltime="47.25" overlapTraveltime="47.69" density="5.14" laneDensity="1.28" occupancy="0.58" waitingTime="0.00" speed="10.29" departed="5" arrived="0" entered="0" left="0" laneChangedFrom="1" laneChangedTo="1"/>
    </interval>
    <interval begin="10.00" end="20.00" id="1i">
        <edge id="1i" sampledSeconds="63.00" traveltime="27.06" overlapTraveltime="27.31" density="12.95" laneDensity="3.24" occupancy="1.46" waitingTime="0.00" speed="17.98" departed="3" arrived="0" entered="0" left="0" laneChangedFrom="3" laneChangedTo="3"/>
        <edge id="2i" sampledSeconds="63.00" traveltime="27.77" overlapTraveltime="28.03" density="12.95" laneDensity="3.24" occupancy="1.46" waitingTime="0.00" speed="17.51" departed="3" arrived="0" entered="0" left="0" laneChangedFrom="0" laneChangedTo="0"/>
        <edge id="3i" sampledSeconds="63.00" traveltime="26.85" overlapTraveltime="27.10" density="12.95" laneDensity="3.24" occupancy="1.46" waitingTime="0.00" speed="18.11" departed="3" arrived="0" entered="0" left="0" laneChangedFrom="0" laneChangedTo="0"/>
        <edge id="4i" sampledSeconds="63.00" traveltime="45.72" overlapTraveltime="46.15" density="12.95" laneDensity="3.24" occupancy="1.46" waitingTime="0.00" speed="10.64" departed="3" arrived="0" entered="0" left="0" laneChangedFrom="1" laneChangedTo="1"/>
    </interval>
    <interval begin="20.00" end="30.00" id="1i">
        <edge id="1i" sampledSeconds="96.09" traveltime="26.92" overlapTraveltime="27.15" density="19.76" laneDensity="4.94" occupancy="2.22" waitingTime="5.00" speed="18.08" departed="4" arrived="0" entered="0" left="2" laneChangedFrom="1" laneChangedTo="1"/>
        <edge id="1o" sampledSeconds="2.05" traveltime="24.32" overlapTraveltime="24.55" density="0.42" laneDensity="0.11" occupancy="0.04" waitingTime="0.00" speed="20.00" departed="0" arrived="0" entered="1" left="0" laneChangedFrom="0" laneChangedTo="0"/>
        <edge id="2i" sampledSeconds="96.81" traveltime="27.79" overlapTraveltime="28.04" density="19.90" laneDensity="4.98" occupancy="2.24" waitingTime="2.00" speed="17.51" departed="4" arrived="0" entered="0" left="1" laneChangedFrom="0" laneChangedTo="0"/>
        <edge id="2o" sampledSeconds="2.74" traveltime="24.32" overlapTraveltime="24.55" density="0.56" laneDensity="0.14" occupancy="0.06" waitingTime="0.00" speed="20.00" departed="0" arrived="0" entered="1" left="0" laneChangedFrom="0" laneChangedTo="0"/>
        <edge id="3i" sampledSeconds="100.00" traveltime="27.29" overlapTraveltime="27.54" density="20.56" laneDensity="5.14" occupancy="2.31" waitingTime="3.00" speed="17.83" departed="4" arrived="0" entered="0" left="0" laneChangedFrom="1" laneChangedTo="1"/>
        <edge id="4i" sampledSeconds="100.00" traveltime="43.17" overlapTraveltime="43.57" density="20.56" laneDensity="5.14" occupancy="2.31" waitingTime="0.00" speed="11.27" departed="4" arrived="0" entered="0" left="0" laneChangedFrom="1" laneChangedTo="1"/>
    </interval>
    <interval begin="30.00" end="40.00" id="1i">
        <edge id="1i" sampledSeconds="109.50" traveltime="28.88" overlapTraveltime="29.68" density="22.51" laneDensity="5.63" occupancy="2.51" waitingTime="11.00" speed="16.54" departed="3" arrived="0" entered="0" left="2" laneChangedFrom="6" laneChangedTo="6"/>
        <edge id="1o" sampledSeconds="22.96" traveltime="24.32" overlapTraveltime="24.54" density="4.72" laneDensity="1.18" occupancy="0.53" waitingTime="0.00" speed="20.00" departed="0" arrived="0" entered="3" left="0" laneChangedFrom="0" laneChangedTo="0"/>
        <edge id="2i" sampledSeconds="111.41" traveltime="30.41" overlapTraveltime="31.22" density="22.90" laneDensity="5.73" occupancy="2.55" waitingTime="12.00" speed="15.73" departed="3" arrived="0" entered="0" left="3" laneChangedFrom="2" laneChangedTo="2"/>
        <edge id="2o" sampledSeconds="18.90" traveltime="24.32" overlapTraveltime="24.54" density="3.89" laneDensity="0.97" occupancy="0.43" waitingTime="0.00" speed="20.00" departed="0" arrived="0" entered="1" left="0" laneChangedFrom="0" laneChangedTo="0"/>
        <edge id="3i" sampledSeconds="129.00" traveltime="36.39" overlapTraveltime="36.73" density="26.52" laneDensity="6.63" occupancy="2.98" waitingTime="34.00" speed="13.37" departed="3" arrived="0" entered="0" left="4" laneChangedFrom="3" laneChangedTo="3"/>
        <edge id="3o" sampledSeconds="2.00" traveltime="162.13" overlapTraveltime="163.63" density="0.41" laneDensity="0.10" occupancy="0.02" waitingTime="0.00" speed="3.00" departed="0" arrived="0" entered="2" left="0" laneChangedFrom="0" laneChangedTo="0"/>
        <edge id="4i" sampledSeconds="137.00" traveltime="44.28" overlapTraveltime="44.69" density="28.17" laneDensity="7.04" occupancy="3.17" waitingTime="0.00" speed="10.99" departed="3" arrived="0" entered="0" left="0" laneChangedFrom="4" laneChangedTo="4"/>
        <edge id="4o" sampledSeconds="3.00" traveltime="33.93" overlapTraveltime="34.25" density="0.62" laneDensity="0.15" occupancy="0.05" waitingTime="0.00" speed="14.33" departed="0" arrived="0" entered="3" left="0" laneChangedFrom="0" laneChangedTo="0"/>
    </interval>
    <interval begin="40.00" end="50.00" id="1i">
        <edge id="1i" sampledSeconds="115.41" traveltime="32.20" overlapTraveltime="32.48" density="23.73" laneDensity="5.93" occupancy="2.67" waitingTime="20.00" speed="15.11" departed="5" arrived="0" entered="0" left="4" laneChangedFrom="5" laneChangedTo="5"/>
        <edge id="1o" sampledSeconds="46.00" traveltime="24.32" overlapTraveltime="24.54" density="9.46" laneDensity="2.36" occupancy="1.06" waitingTime="0.00" speed="20.00" departed="0" arrived="0" entered="2" left="0" laneChangedFrom="0" laneChangedTo="1"/>
        <edge id="2i" sampledSeconds="123.74" traveltime="33.08" overlapTraveltime="33.37" density="25.44" laneDensity="6.36" occupancy="2.86" waitingTime="22.00" speed="14.71" departed="5" arrived="0" entered="0" left="3" laneChangedFrom="3" laneChangedTo="3"/>
        <edge id="2o" sampledSeconds="33.00" traveltime="24.32" overlapTraveltime="24.54" density="6.78" laneDensity="1.70" occupancy="0.76" waitingTime="0.00" speed="20.00" departed="0" arrived="0" entered="3" left="0" laneChangedFrom="0" laneChangedTo="0"/>
        <edge id="3i" sampledSeconds="120.82" traveltime="31.60" overlapTraveltime="32.51" density="24.84" laneDensity="6.21" occupancy="2.76" waitingTime="20.00" speed="15.10" departed="5" arrived="0" entered="0" left="4" laneChangedFrom="2" laneChangedTo="2"/>
        <edge id="3o" sampledSeconds="12.82" traveltime="33.97" overlapTraveltime="34.29" density="2.64" laneDensity="0.66" occupancy="0.28" waitingTime="0.00" speed="14.32" departed="0" arrived="0" entered="3" left="2" laneChangedFrom="0" laneChangedTo="0" vaporized="2"/>
        <edge id="4i" sampledSeconds="165.03" traveltime="45.39" overlapTraveltime="46.22" density="33.93" laneDensity="8.48" occupancy="3.79" waitingTime="7.00" speed="10.62" departed="5" arrived="0" entered="0" left="3" laneChangedFrom="3" laneChangedTo="3"/>
        <edge id="4o" sampledSeconds="42.65" traveltime="28.33" overlapTraveltime="28.59" density="8.77" laneDensity="2.19" occupancy="0.94" waitingTime="0.00" speed="17.17" departed="0" arrived="0" entered="5" left="1" laneChangedFrom="1" laneChangedTo="1" vaporized="1"/>
    </interval>
    <interval begin="50.00" end="60.00" id="1i">
        <edge id="1i" sampledSeconds="121.00" traveltime="33.26" overlapTraveltime="33.57" density="24.88" laneDensity="6.22" occupancy="2.80" waitingTime="25.00" speed="14.62" departed="3" arrived="0" entered="0" left="3" laneChangedFrom="2" laneChangedTo="2"/>
        <edge id="1o" sampledSeconds="70.08" traveltime="24.32" overlapTraveltime="24.54" density="14.41" laneDensity="3.60" occupancy="1.62" waitingTime="0.00" speed="20.00" departed="0" arrived="2" entered="4" left="0" laneChangedFrom="0" laneChangedTo="0"/>
        <edge id="2i" sampledSeconds="133.00" traveltime="36.03" overlapTraveltime="36.37" density="27.34" laneDensity="6.84" occupancy="3.08" waitingTime="33.00" speed="13.50" departed="3" arrived="0" entered="0" left="2" laneChangedFrom="2" laneChangedTo="2"/>
        <edge id="2o" sampledSeconds="67.90" traveltime="25.39" overlapTraveltime="25.62" density="13.96" laneDensity="3.49" occupancy="1.54" waitingTime="0.00" speed="19.16" departed="0" arrived="2" entered="6" left="0" laneChangedFrom="0" laneChangedTo="0"/>
        <edge id="3i" sampledSeconds="107.89" traveltime="30.46" overlapTraveltime="30.71" density="22.18" laneDensity="5.55" occupancy="2.49" waitingTime="11.00" speed="15.98" departed="3" arrived="0" entered="0" left="4" laneChangedFrom="0" laneC</meandata>
/>
        <edge id="3o" sampledSeconds="42.25" traveltime="24.38" overlapTraveltime="24.60" density="8.69" laneDensity="2.17" occupancy="0.97" waitingTime="0.00" speed="19.95" departed="0" arrived="0" entered="3" left="0" laneChangedFrom="0" laneChangedTo="0"/>
        <edge id="4i" sampledSeconds="156.41" traveltime="41.13" overlapTraveltime="41.26" density="32.16" laneDensity="8.04" occupancy="3.60" waitingTime="0.00" speed="11.90" departed="3" arrived="0" entered="0" left="6" laneChangedFrom="6" laneChangedTo="6"/>
        <edge id="4o" sampledSeconds="92.84" traveltime="25.69" overlapTraveltime="25.93" density="19.09" laneDensity="4.77" occupancy="2.12" waitingTime="0.00" speed="18.93" departed="0" arrived="0" entered="3" left="0" laneChangedFrom="1" laneChangedTo="1"/>
    </interval>
    <interval begin="60.00" end="61.00" id="1i">
        <edge id="1i" sampledSeconds="12.00" traveltime="35.54" overlapTraveltime="35.87" density="24.67" laneDensity="6.17" occupancy="2.78" waitingTime="3.00" speed="13.69" departed="0" arrived="0" entered="0" left="2" laneChangedFrom="1" laneChangedTo="1"/>
        <edge id="1o" sampledSeconds="8.00" traveltime="24.32" overlapTraveltime="24.54" density="16.45" laneDensity="4.11" occupancy="1.85" waitingTime="0.00" speed="20.00" departed="0" arrived="0" entered="0" left="0" laneChangedFrom="0" laneChangedTo="0"/>
        <edge id="2i" sampledSeconds="14.00" traveltime="36.06" overlapTraveltime="36.39" density="28.78" laneDensity="7.20" occupancy="3.24" waitingTime="3.00" speed="13.49" departed="0" arrived="0" entered="0" left="0" laneChangedFrom="1" laneChangedTo="1"/>
        <edge id="2o" sampledSeconds="9.00" traveltime="24.32" overlapTraveltime="24.54" density="18.50" laneDensity="4.63" occupancy="2.08" waitingTime="0.00" speed="20.00" departed="0" arrived="0" entered="0" left="0" laneChangedFrom="0" laneChangedTo="0"/>
        <edge id="3i" sampledSeconds="11.00" traveltime="29.28" overlapTraveltime="29.55" density="22.62" laneDensity="5.65" occupancy="2.54" waitingTime="1.00" speed="16.61" departed="0" arrived="0" entered="0" left="0" laneChangedFrom="0" laneChangedTo="0"/>
        <edge id="3o" sampledSeconds="6.35" traveltime="24.32" overlapTraveltime="24.54" density="13.04" laneDensity="3.26" occupancy="1.44" waitingTime="0.00" speed="20.00" departed="0" arrived="0" entered="1" left="0" laneChangedFrom="0" laneChangedTo="0"/>
        <edge id="4i" sampledSeconds="14.00" traveltime="45.09" overlapTraveltime="45.51" density="28.78" laneDensity="7.20" occupancy="3.24" waitingTime="0.00" speed="10.79" departed="0" arrived="0" entered="0" left="0" laneChangedFrom="0" laneChangedTo="0"/>
        <edge id="4o" sampledSeconds="10.00" traveltime="24.32" overlapTraveltime="24.55" density="20.56" laneDensity="5.14" occupancy="2.31" waitingTime="0.00" speed="20.00" departed="0" arrived="0" entered="2" left="0" laneChangedFrom="0" laneChangedTo="0"/>
    </interval>
</meandata>
