<?xml version="1.0" encoding="UTF-8"?>

<!-- generated on Tue Apr 20 16:37:19 2021 by Eclipse SUMO Version 1.6.0
<configuration xmlns:xsi="http://www.w3.org/2001/XMLSchema-instance" xsi:noNamespaceSchemaLocation="http://sumo.dlr.de/xsd/sumoConfiguration.xsd">

    <input>
        <net-file value="sumo/intersection.net.xml"/>
        <route-files value="sumo/inter.rou.xml"/>
        <additional-files value="sumo/intersection.add.xml"/>
    </input>

    <output>
        <summary-output value="sumo/summary.xml"/>
    </output>

    <time>
        <begin value="0"/>
        <end value="120"/>
    </time>

    <processing>
        <collision.action value="teleport"/>
        <collision.stoptime value="2"/>
        <collision.check-junctions value="true"/>
        <time-to-teleport value="120"/>
    </processing>

    <traci_server>
        <remote-port value="63322"/>
    </traci_server>

</configuration>
-->

<meandata xmlns:xsi="http://www.w3.org/2001/XMLSchema-instance" xsi:noNamespaceSchemaLocation="http://sumo.dlr.de/xsd/meandata_file.xsd">
    <interval begin="0.00" end="10.00" id="1i">
        <edge id="1i" sampledSeconds="25.00" traveltime="27.32" overlapTraveltime="27.57" density="5.14" laneDensity="1.28" occupancy="0.58" waitingTime="0.00" speed="17.81" departed="5" arrived="0" entered="0" left="0" laneChangedFrom="0" laneChangedTo="0"/>
        <edge id="2i" sampledSeconds="25.00" traveltime="35.72" overlapTraveltime="36.06" density="5.14" laneDensity="1.28" occupancy="0.58" waitingTime="0.00" speed="13.62" departed="5" arrived="0" entered="0" left="0" laneChangedFrom="0" laneChangedTo="0"/>
        <edge id="3i" sampledSeconds="25.00" traveltime="37.78" overlapTraveltime="38.13" density="5.14" laneDensity="1.28" occupancy="0.58" waitingTime="0.00" speed="12.87" departed="5" arrived="0" entered="0" left="0" laneChangedFrom="0" laneChangedTo="0"/>
        <edge id="4i" sampledSeconds="25.00" traveltime="48.53" overlapTraveltime="48.98" density="5.14" laneDensity="1.28" occupancy="0.58" waitingTime="0.00" speed="10.02" departed="5" arrived="0" entered="0" left="0" laneChangedFrom="0" laneChangedTo="0"/>
    </interval>
    <interval begin="10.00" end="20.00" id="1i">
        <edge id="1i" sampledSeconds="63.00" traveltime="27.30" overlapTraveltime="27.55" density="12.95" laneDensity="3.24" occupancy="1.46" waitingTime="0.00" speed="17.82" departed="3" arrived="0" entered="0" left="0" laneChangedFrom="2" laneChangedTo="2"/>
        <edge id="2i" sampledSeconds="63.00" traveltime="28.26" overlapTraveltime="28.52" density="12.95" laneDensity="3.24" occupancy="1.46" waitingTime="0.00" speed="17.21" departed="3" arrived="0" entered="0" left="0" laneChangedFrom="0" laneChangedTo="0"/>
        <edge id="3i" sampledSeconds="63.00" traveltime="29.33" overlapTraveltime="29.61" density="12.95" laneDensity="3.24" occupancy="1.46" waitingTime="0.00" speed="16.58" departed="3" arrived="0" entered="0" left="0" laneChangedFrom="0" laneChangedTo="0"/>
        <edge id="4i" sampledSeconds="63.00" traveltime="45.30" overlapTraveltime="45.72" density="12.95" laneDensity="3.24" occupancy="1.46" waitingTime="0.00" speed="10.74" departed="3" arrived="0" entered="0" left="0" laneChangedFrom="1" laneChangedTo="1"/>
    </interval>
    <interval begin="20.00" end="30.00" id="1i">
        <edge id="1i" sampledSeconds="96.59" traveltime="26.84" overlapTraveltime="27.09" density="19.86" laneDensity="4.96" occupancy="2.23" waitingTime="1.00" speed="18.12" departed="4" arrived="0" entered="0" left="1" laneChangedFrom="3" laneChangedTo="3"/>
        <edge id="1o" sampledSeconds="2.00" traveltime="25.20" overlapTraveltime="25.43" density="0.41" laneDensity="0.10" occupancy="0.04" waitingTime="0.00" speed="19.30" departed="0" arrived="0" entered="1" left="0" laneChangedFrom="0" laneChangedTo="0"/>
        <edge id="2i" sampledSeconds="96.82" traveltime="26.05" overlapTraveltime="26.29" density="19.91" laneDensity="4.98" occupancy="2.24" waitingTime="0.00" speed="18.67" departed="4" arrived="0" entered="0" left="1" laneChangedFrom="0" laneChangedTo="0"/>
        <edge id="2o" sampledSeconds="2.20" traveltime="25.94" overlapTraveltime="26.18" density="0.45" laneDensity="0.11" occupancy="0.05" waitingTime="0.00" speed="18.75" departed="0" arrived="0" entered="1" left="0" laneChangedFrom="0" laneChangedTo="0"/>
        <edge id="3i" sampledSeconds="100.00" traveltime="29.01" overlapTraveltime="29.28" density="20.56" laneDensity="5.14" occupancy="2.31" waitingTime="1.00" speed="16.77" departed="4" arrived="0" entered="0" left="0" laneChangedFrom="0" laneChangedTo="0"/>
        <edge id="4i" sampledSeconds="100.00" traveltime="44.14" overlapTraveltime="44.55" density="20.56" laneDensity="5.14" occupancy="2.31" waitingTime="0.00" speed="11.02" departed="4" arrived="0" entered="0" left="0" laneChangedFrom="3" laneChangedTo="3"/>
    </interval>
    <interval begin="30.00" end="40.00" id="1i">
        <edge id="1i" sampledSeconds="121.66" traveltime="31.30" overlapTraveltime="31.98" density="25.01" laneDensity="6.25" occupancy="2.79" waitingTime="14.00" speed="15.35" departed="3" arrived="0" entered="0" left="2" laneChangedFrom="4" laneChangedTo="4"/>
        <edge id="1o" sampledSeconds="10.00" traveltime="25.21" overlapTraveltime="25.45" density="2.06" laneDensity="0.51" occupancy="0.23" waitingTime="0.00" speed="19.29" departed="0" arrived="0" entered="0" left="0" laneChangedFrom="0" laneChangedTo="0"/>
        <edge id="2i" sampledSeconds="121.10" traveltime="33.06" overlapTraveltime="33.70" density="24.90" laneDensity="6.22" occupancy="2.78" waitingTime="8.00" speed="14.56" departed="3" arrived="0" entered="0" left="2" laneChangedFrom="2" laneChangedTo="2"/>
        <edge id="2o" sampledSeconds="10.00" traveltime="25.32" overlapTraveltime="25.55" density="2.06" laneDensity="0.51" occupancy="0.23" waitingTime="0.00" speed="19.21" departed="0" arrived="0" entered="0" left="0" laneChangedFrom="0" laneChangedTo="0"/>
        <edge id="3i" sampledSeconds="137.00" traveltime="35.18" overlapTraveltime="35.50" density="28.17" laneDensity="7.04" occupancy="3.17" waitingTime="24.00" speed="13.83" departed="3" arrived="0" entered="0" left="0" laneChangedFrom="4" laneChangedTo="4"/>
        <edge id="4i" sampledSeconds="137.00" traveltime="44.95" overlapTraveltime="45.36" density="28.17" laneDensity="7.04" occupancy="3.17" waitingTime="0.00" speed="10.82" departed="3" arrived="0" entered="0" left="0" laneChangedFrom="0" laneChangedTo="0"/>
        <edge id="4o" sampledSeconds="0.23" traveltime="56.41" overlapTraveltime="56.93" density="0.05" laneDensity="0.01" occupancy="0.00" waitingTime="0.00" speed="8.62" departed="0" arrived="0" entered="1" left="0" laneChangedFrom="0" laneChangedTo="0"/>
    </interval>
    <interval begin="40.00" end="50.00" id="1i">
        <edge id="1i" sampledSeconds="145.00" traveltime="40.46" overlapTraveltime="40.83" density="29.81" laneDensity="7.45" occupancy="3.35" waitingTime="32.00" speed="12.02" departed="5" arrived="0" entered="0" left="0" laneChangedFrom="6" laneChangedTo="6"/>
        <edge id="1o" sampledSeconds="10.00" traveltime="25.26" overlapTraveltime="25.49" density="2.06" laneDensity="0.51" occupancy="0.23" waitingTime="0.00" speed="19.26" departed="0" arrived="0" entered="0" left="0" laneChangedFrom="0" laneChangedTo="0"/>
        <edge id="2i" sampledSeconds="145.00" traveltime="39.48" overlapTraveltime="39.85" density="29.81" laneDensity="7.45" occupancy="3.35" waitingTime="36.00" speed="12.32" departed="5" arrived="0" entered="0" left="0" laneChangedFrom="2" laneChangedTo="2"/>
        <edge id="2o" sampledSeconds="10.00" traveltime="25.21" overlapTraveltime="25.45" density="2.06" laneDensity="0.51" occupancy="0.23" waitingTime="0.00" speed="19.29" departed="0" arrived="0" entered="0" left="0" laneChangedFrom="0" laneChangedTo="0"/>
        <edge id="3i" sampledSeconds="175.00" traveltime="48.32" overlapTraveltime="48.77" density="35.98" laneDensity="8.99" occupancy="4.05" waitingTime="54.00" speed="10.07" departed="5" arrived="0" entered="0" left="0" laneChangedFrom="2" laneChangedTo="2"/>
        <edge id="4i" sampledSeconds="171.51" traveltime="48.40" overlapTraveltime="49.03" density="35.26" laneDensity="8.82" occupancy="3.96" waitingTime="5.00" speed="10.01" departed="5" arrived="0" entered="0" left="1" laneChangedFrom="6" laneChangedTo="6"/>
        <edge id="4o" sampledSeconds="18.03" traveltime="30.20" overlapTraveltime="30.48" density="3.71" laneDensity="0.93" occupancy="0.41" waitingTime="0.00" speed="16.11" departed="0" arrived="0" entered="1" left="0" laneChangedFrom="0" laneChangedTo="0"/>
    </interval>
    <interval begin="50.00" end="60.00" id="1i">
        <edge id="1i" sampledSeconds="183.00" traveltime="52.48" overlapTraveltime="52.97" density="37.62" laneDensity="9.41" occupancy="4.23" waitingTime="72.00" speed="9.27" departed="3" arrived="0" entered="0" left="0" laneChangedFrom="5" laneChangedTo="5"/>
        <edge id="1o" sampledSeconds="3.46" traveltime="25.20" overlapTraveltime="25.41" density="0.71" laneDensity="0.18" occupancy="0.08" waitingTime="0.00" speed="19.32" departed="0" arrived="1" entered="0" left="0" laneChangedFrom="0" laneChangedTo="0"/>
        <edge id="2i" sampledSeconds="183.00" traveltime="50.08" overlapTraveltime="50.54" density="37.62" laneDensity="9.41" occupancy="4.23" waitingTime="77.00" speed="9.71" departed="3" arrived="0" entered="0" left="0" laneChangedFrom="2" laneChangedTo="2"/>
        <edge id="2o" sampledSeconds="3.40" traveltime="25.62" overlapTraveltime="25.81" density="0.70" laneDensity="0.17" occupancy="0.08" waitingTime="0.00" speed="19.02" departed="0" arrived="1" entered="0" left="0" laneChangedFrom="0" laneChangedTo="0"/>
        <edge id="3i" sampledSeconds="213.00" traveltime="60.14" overlapTraveltime="60.69" density="43.79" laneDensity="10.95" occupancy="4.93" waitingTime="94.00" speed="8.09" departed="3" arrived="0" entered="0" left="0" laneChangedFrom="4" laneChangedTo="4"/>
        <edge id="4i" sampledSeconds="203.00" traveltime="54.82" overlapTraveltime="55.33" density="41.74" laneDensity="10.43" occupancy="4.70" waitingTime="32.00" speed="8.87" departed="3" arrived="0" entered="0" left="0" laneChangedFrom="2" laneChangedTo="2"/>
        <edge id="4o" sampledSeconds="20.00" traveltime="27.43" overlapTraveltime="27.69" density="4.11" laneDensity="1.03" occupancy="0.46" waitingTime="0.00" speed="17.73" departed="0" arrived="0" entered="0" left="0" laneChangedFrom="1" laneChangedTo="1"/>
    </interval>
</meandata>
l begin="60.00" end="61.00" id="1i">
        <edge id="1i" sampledSeconds="20.00" traveltime="57.85" overlapTraveltime="58.38" density="41.12" laneDensity="10.28" occupancy="4.63" waitingTime="10.00" speed="8.41" departed="0" arrived="0" entered="0" left="0" laneChangedFrom="1" laneChangedTo="1"/>
        <edge id="2i" sampledSeconds="20.00" traveltime="56.33" overlapTraveltime="56.85" density="41.12" laneDensity="10.28" occupancy="4.63" waitingTime="9.00" speed="8.64" departed="0" arrived="0" entered="0" left="0" laneChangedFrom="0" laneChangedTo="0"/>
        <edge id="3i" sampledSeconds="23.00" traveltime="66.25" overlapTraveltime="66.86" density="47.29" laneDensity="11.82" occupancy="5.32" waitingTime="11.00" speed="7.34" departed="0" arrived="0" entered="0" left="0" laneChangedFrom="0" laneChangedTo="0"/>
        <edge id="4i" sampledSeconds="22.00" traveltime="56.45" overlapTraveltime="56.97" density="45.23" laneDensity="11.31" occupancy="5.09" waitingTime="4.00" speed="8.62" departed="0" arrived="0" entered="0" left="0" laneChangedFrom="0" laneChangedTo="0"/>
        <edge id="4o" sampledSeconds="2.00" traveltime="28.41" overlapTraveltime="28.67" density="4.11" laneDensity="1.03" occupancy="0.46" waitingTime="0.00" speed="17.12" departed="0" arrived="0" entered="0" left="0" laneChangedFrom="0" laneChangedTo="0"/>
    </interval>
</meandata>
