<?xml version="1.0" encoding="UTF-8"?>

<!-- generated on Tue Mar 16 23:43:31 2021 by Eclipse SUMO Version 1.6.0
<configuration xmlns:xsi="http://www.w3.org/2001/XMLSchema-instance" xsi:noNamespaceSchemaLocation="http://sumo.dlr.de/xsd/sumoConfiguration.xsd">

    <input>
        <net-file value="sumo/intersection.net.xml"/>
        <route-files value="sumo/inter.rou.xml"/>
        <additional-files value="sumo/intersection.add.xml"/>
    </input>

    <output>
        <summary-output value="sumo/summary.xml"/>
    </output>

    <time>
        <begin value="0"/>
        <end value="120"/>
    </time>

    <processing>
        <collision.action value="teleport"/>
        <collision.stoptime value="2"/>
        <collision.check-junctions value="true"/>
        <time-to-teleport value="120"/>
    </processing>

    <traci_server>
        <remote-port value="55782"/>
    </traci_server>

    <random_number>
        <random value="true"/>
    </random_number>

</configuration>
-->

<meandata xmlns:xsi="http://www.w3.org/2001/XMLSchema-instance" xsi:noNamespaceSchemaLocation="http://sumo.dlr.de/xsd/meandata_file.xsd">
    <interval begin="0.00" end="60.00" id="1i">
        <edge id="1i" sampledSeconds="530.47" traveltime="30.04" overlapTraveltime="30.39" density="18.18" laneDensity="4.54" occupancy="2.04" waitingTime="63.00" speed="16.15" departed="23" arrived="0" entered="0" left="10" laneChangedFrom="17" laneChangedTo="17"/>
        <edge id="1o" sampledSeconds="145.05" traveltime="24.32" overlapTraveltime="24.55" density="4.97" laneDensity="1.24" occupancy="0.56" waitingTime="0.00" speed="20.00" departed="0" arrived="2" entered="10" left="0" laneChangedFrom="0" laneChangedTo="0"/>
        <edge id="2i" sampledSeconds="544.72" traveltime="30.58" overlapTraveltime="30.96" density="18.66" laneDensity="4.67" occupancy="2.09" waitingTime="63.00" speed="15.85" departed="23" arrived="0" entered="0" left="9" laneChangedFrom="6" laneChangedTo="6"/>
        <edge id="2o" sampledSeconds="114.03" traveltime="24.95" overlapTraveltime="25.17" density="3.91" laneDensity="0.98" occupancy="0.43" waitingTime="0.00" speed="19.50" departed="0" arrived="3" entered="10" left="0" laneChangedFrom="0" laneChangedTo="0"/>
        <edge id="3i" sampledSeconds="554.19" traveltime="31.67" overlapTraveltime="31.98" density="18.99" laneDensity="4.75" occupancy="2.13" waitingTime="74.00" speed="15.35" departed="23" arrived="0" entered="0" left="11" laneChangedFrom="10" laneChangedTo="10"/>
        <edge id="3o" sampledSeconds="55.03" traveltime="27.23" overlapTraveltime="27.49" density="1.89" laneDensity="0.47" occupancy="0.20" waitingTime="0.00" speed="17.86" departed="0" arrived="0" entered="7" left="2" laneChangedFrom="0" laneChangedTo="0" vaporized="2"/>
        <edge id="4i" sampledSeconds="656.62" traveltime="44.69" overlapTraveltime="45.21" density="22.50" laneDensity="5.62" occupancy="2.52" waitingTime="14.00" speed="10.86" departed="23" arrived="0" entered="0" left="8" laneChangedFrom="13" laneChangedTo="13"/>
        <edge id="4o" sampledSeconds="151.58" traveltime="24.99" overlapTraveltime="25.22" density="5.19" laneDensity="1.30" occupancy="0.58" waitingTime="0.00" speed="19.47" departed="0" arrived="0" entered="10" left="1" laneChangedFrom="1" laneChangedTo="</meandata>
="1"/>
    </interval>
    <interval begin="60.00" end="61.00" id="1i">
        <edge id="1i" sampledSeconds="13.00" traveltime="39.95" overlapTraveltime="40.32" density="26.73" laneDensity="6.68" occupancy="3.01" waitingTime="4.00" speed="12.18" departed="0" arrived="0" entered="0" left="0" laneChangedFrom="0" laneChangedTo="0"/>
        <edge id="1o" sampledSeconds="8.00" traveltime="24.32" overlapTraveltime="24.54" density="16.45" laneDensity="4.11" occupancy="1.85" waitingTime="0.00" speed="20.00" departed="0" arrived="0" entered="0" left="0" laneChangedFrom="0" laneChangedTo="0"/>
        <edge id="2i" sampledSeconds="14.00" traveltime="34.24" overlapTraveltime="34.56" density="28.78" laneDensity="7.20" occupancy="3.24" waitingTime="3.00" speed="14.20" departed="0" arrived="0" entered="0" left="0" laneChangedFrom="1" laneChangedTo="1"/>
        <edge id="2o" sampledSeconds="7.00" traveltime="24.32" overlapTraveltime="24.54" density="14.39" laneDensity="3.60" occupancy="1.62" waitingTime="0.00" speed="20.00" departed="0" arrived="0" entered="0" left="0" laneChangedFrom="0" laneChangedTo="0"/>
        <edge id="3i" sampledSeconds="11.94" traveltime="28.53" overlapTraveltime="28.70" density="24.56" laneDensity="6.14" occupancy="2.74" waitingTime="1.00" speed="17.11" departed="0" arrived="0" entered="0" left="1" laneChangedFrom="0" laneChangedTo="0"/>
        <edge id="3o" sampledSeconds="5.00" traveltime="24.32" overlapTraveltime="24.55" density="10.28" laneDensity="2.57" occupancy="1.16" waitingTime="0.00" speed="20.00" departed="0" arrived="0" entered="0" left="0" laneChangedFrom="0" laneChangedTo="0"/>
        <edge id="4i" sampledSeconds="15.04" traveltime="44.93" overlapTraveltime="45.24" density="30.92" laneDensity="7.73" occupancy="3.47" waitingTime="0.00" speed="10.85" departed="0" arrived="0" entered="0" left="0" laneChangedFrom="0" laneChangedTo="0"/>
        <edge id="4o" sampledSeconds="8.00" traveltime="24.32" overlapTraveltime="24.54" density="16.45" laneDensity="4.11" occupancy="1.85" waitingTime="0.00" speed="20.00" departed="0" arrived="0" entered="0" left="0" laneChangedFrom="0" laneChangedTo="0"/>
    </interval>
</meandata>
