<?xml version="1.0" encoding="UTF-8"?>

<!-- generated on Tue Mar 16 23:38:06 2021 by Eclipse SUMO Version 1.6.0
<configuration xmlns:xsi="http://www.w3.org/2001/XMLSchema-instance" xsi:noNamespaceSchemaLocation="http://sumo.dlr.de/xsd/sumoConfiguration.xsd">

    <input>
        <net-file value="sumo/intersection.net.xml"/>
        <route-files value="sumo/inter.rou.xml"/>
        <additional-files value="sumo/intersection.add.xml"/>
    </input>

    <output>
        <summary-output value="sumo/summary.xml"/>
    </output>

    <time>
        <begin value="0"/>
        <end value="120"/>
    </time>

    <processing>
        <collision.action value="teleport"/>
        <collision.stoptime value="2"/>
        <collision.check-junctions value="true"/>
        <time-to-teleport value="120"/>
    </processing>

    <traci_server>
        <remote-port value="55700"/>
    </traci_server>

    <random_number>
        <random value="true"/>
    </random_number>

</configuration>
-->

<meandata xmlns:xsi="http://www.w3.org/2001/XMLSchema-instance" xsi:noNamespaceSchemaLocation="http://sumo.dlr.de/xsd/meandata_file.xsd">
    <interval begin="0.00" end="10.00" id="1i">
        <edge id="1i" sampledSeconds="19.00" traveltime="29.09" overlapTraveltime="29.35" density="3.91" laneDensity="0.98" occupancy="0.44" waitingTime="0.00" speed="16.72" departed="3" arrived="0" entered="0" left="0" laneChangedFrom="0" laneChangedTo="0"/>
        <edge id="2i" sampledSeconds="19.00" traveltime="26.55" overlapTraveltime="26.79" density="3.91" laneDensity="0.98" occupancy="0.44" waitingTime="0.00" speed="18.32" departed="3" arrived="0" entered="0" left="0" laneChangedFrom="0" laneChangedTo="0"/>
        <edge id="3i" sampledSeconds="19.00" traveltime="32.92" overlapTraveltime="33.23" density="3.91" laneDensity="0.98" occupancy="0.44" waitingTime="0.00" speed="14.77" departed="3" arrived="0" entered="0" left="0" laneChangedFrom="0" laneChangedTo="0"/>
        <edge id="4i" sampledSeconds="19.00" traveltime="50.88" overlapTraveltime="51.35" density="3.91" laneDensity="0.98" occupancy="0.44" waitingTime="0.00" speed="9.56" departed="3" arrived="0" entered="0" left="0" laneChangedFrom="1" laneChangedTo="1"/>
    </interval>
    <interval begin="10.00" end="20.00" id="1i">
        <edge id="1i" sampledSeconds="36.00" traveltime="26.54" overlapTraveltime="26.79" density="7.40" laneDensity="1.85" occupancy="0.83" waitingTime="0.00" speed="18.33" departed="2" arrived="0" entered="0" left="0" laneChangedFrom="2" laneChangedTo="2"/>
        <edge id="2i" sampledSeconds="36.00" traveltime="25.48" overlapTraveltime="25.72" density="7.40" laneDensity="1.85" occupancy="0.83" waitingTime="0.00" speed="19.09" departed="2" arrived="0" entered="0" left="0" laneChangedFrom="0" laneChangedTo="0"/>
        <edge id="3i" sampledSeconds="36.00" traveltime="26.08" overlapTraveltime="26.32" density="7.40" laneDensity="1.85" occupancy="0.83" waitingTime="0.00" speed="18.65" departed="2" arrived="0" entered="0" left="0" laneChangedFrom="0" laneChangedTo="0"/>
        <edge id="4i" sampledSeconds="36.00" traveltime="45.28" overlapTraveltime="45.70" density="7.40" laneDensity="1.85" occupancy="0.83" waitingTime="0.00" speed="10.74" departed="2" arrived="0" entered="0" left="0" laneChangedFrom="0" laneChangedTo="0"/>
    </interval>
    <interval begin="20.00" end="30.00" id="1i">
        <edge id="1i" sampledSeconds="52.18" traveltime="27.85" overlapTraveltime="28.09" density="10.73" laneDensity="2.68" occupancy="1.20" waitingTime="4.00" speed="17.48" departed="1" arrived="0" entered="0" left="1" laneChangedFrom="1" laneChangedTo="1"/>
        <edge id="1o" sampledSeconds="1.72" traveltime="24.32" overlapTraveltime="24.55" density="0.35" laneDensity="0.09" occupancy="0.04" waitingTime="0.00" speed="20.00" departed="0" arrived="0" entered="1" left="0" laneChangedFrom="0" laneChangedTo="0"/>
        <edge id="2i" sampledSeconds="52.14" traveltime="27.88" overlapTraveltime="28.12" density="10.72" laneDensity="2.68" occupancy="1.20" waitingTime="5.00" speed="17.46" departed="1" arrived="0" entered="0" left="1" laneChangedFrom="0" laneChangedTo="0"/>
        <edge id="2o" sampledSeconds="1.69" traveltime="24.32" overlapTraveltime="24.55" density="0.35" laneDensity="0.09" occupancy="0.04" waitingTime="0.00" speed="20.00" departed="0" arrived="0" entered="1" left="0" laneChangedFrom="0" laneChangedTo="0"/>
        <edge id="3i" sampledSeconds="55.00" traveltime="28.33" overlapTraveltime="28.59" density="11.31" laneDensity="2.83" occupancy="1.27" waitingTime="5.00" speed="17.17" departed="1" arrived="0" entered="0" left="0" laneChangedFrom="0" laneChangedTo="0"/>
        <edge id="4i" sampledSeconds="55.00" traveltime="42.35" overlapTraveltime="42.74" density="11.31" laneDensity="2.83" occupancy="1.27" waitingTime="0.00" speed="11.49" departed="1" arrived="0" entered="0" left="0" laneChangedFrom="2" laneChangedTo="2"/>
    </interval>
    <interval begin="30.00" end="40.00" id="1i">
        <edge id="1i" sampledSeconds="59.25" traveltime="32.94" overlapTraveltime="33.79" density="12.18" laneDensity="3.05" occupancy="1.36" waitingTime="8.00" speed="14.53" departed="2" arrived="0" entered="0" left="1" laneChangedFrom="2" laneChangedTo="2"/>
        <edge id="1o" sampledSeconds="10.00" traveltime="24.32" overlapTraveltime="24.55" density="2.06" laneDensity="0.51" occupancy="0.23" waitingTime="0.00" speed="20.00" departed="0" arrived="0" entered="0" left="0" laneChangedFrom="0" laneChangedTo="0"/>
        <edge id="2i" sampledSeconds="59.25" traveltime="31.08" overlapTraveltime="31.88" density="12.18" laneDensity="3.05" occupancy="1.36" waitingTime="10.00" speed="15.40" departed="2" arrived="0" entered="0" left="1" laneChangedFrom="1" laneChangedTo="1"/>
        <edge id="2o" sampledSeconds="10.00" traveltime="24.32" overlapTraveltime="24.55" density="2.06" laneDensity="0.51" occupancy="0.23" waitingTime="0.00" speed="20.00" departed="0" arrived="0" entered="0" left="0" laneChangedFrom="0" laneChangedTo="0"/>
        <edge id="3i" sampledSeconds="74.00" traveltime="41.31" overlapTraveltime="41.70" density="15.21" laneDensity="3.80" occupancy="1.71" waitingTime="26.00" speed="11.77" departed="2" arrived="0" entered="0" left="0" laneChangedFrom="2" laneChangedTo="2"/>
        <edge id="3o" sampledSeconds="2.46" traveltime="31.06" overlapTraveltime="31.34" density="0.51" laneDensity="0.13" occupancy="0.05" waitingTime="0.00" speed="15.66" departed="0" arrived="0" entered="1" left="0" laneChangedFrom="0" laneChangedTo="0"/>
        <edge id="4i" sampledSeconds="74.00" traveltime="43.44" overlapTraveltime="43.85" density="15.21" laneDensity="3.80" occupancy="1.71" waitingTime="0.00" speed="11.20" departed="2" arrived="0" entered="0" left="0" laneChangedFrom="1" laneChangedTo="1"/>
        <edge id="4o" sampledSeconds="2.24" traveltime="30.36" overlapTraveltime="30.64" density="0.46" laneDensity="0.12" occupancy="0.05" waitingTime="0.00" speed="16.02" departed="0" arrived="0" entered="1" left="0" laneChangedFrom="0" laneChangedTo="0"/>
    </interval>
    <interval begin="40.00" end="50.00" id="1i">
        <edge id="1i" sampledSeconds="63.29" traveltime="38.39" overlapTraveltime="38.66" density="13.01" laneDensity="3.25" occupancy="1.46" waitingTime="19.00" speed="12.70" departed="3" arrived="0" entered="0" left="1" laneChangedFrom="2" laneChangedTo="2"/>
        <edge id="1o" sampledSeconds="20.00" traveltime="24.32" overlapTraveltime="24.55" density="4.11" laneDensity="1.03" occupancy="0.46" waitingTime="0.00" speed="20.00" departed="0" arrived="0" entered="2" left="0" laneChangedFrom="0" laneChangedTo="0"/>
        <edge id="2i" sampledSeconds="63.45" traveltime="39.70" overlapTraveltime="39.97" density="13.04" laneDensity="3.26" occupancy="1.46" waitingTime="20.00" speed="12.28" departed="3" arrived="0" entered="0" left="1" laneChangedFrom="2" laneChangedTo="2"/>
        <edge id="2o" sampledSeconds="10.00" traveltime="24.32" overlapTraveltime="24.55" density="2.06" laneDensity="0.51" occupancy="0.23" waitingTime="0.00" speed="20.00" departed="0" arrived="0" entered="0" left="0" laneChangedFrom="0" laneChangedTo="0"/>
        <edge id="3i" sampledSeconds="69.75" traveltime="37.38" overlapTraveltime="39.25" density="14.34" laneDensity="3.59" occupancy="1.58" waitingTime="20.00" speed="12.51" departed="3" arrived="0" entered="0" left="5" laneChangedFrom="1" laneChangedTo="1"/>
        <edge id="3o" sampledSeconds="21.33" traveltime="24.32" overlapTraveltime="24.54" density="4.38" laneDensity="1.10" occupancy="0.49" waitingTime="0.00" speed="20.00" departed="0" arrived="0" entered="3" left="0" laneChangedFrom="0" laneChangedTo="0"/>
        <edge id="4i" sampledSeconds="80.21" traveltime="43.22" overlapTraveltime="43.90" density="16.49" laneDensity="4.12" occupancy="1.84" waitingTime="4.00" speed="11.18" departed="3" arrived="0" entered="0" left="3" laneChangedFrom="1" laneChangedTo="1"/>
        <edge id="4o" sampledSeconds="19.05" traveltime="25.44" overlapTraveltime="25.67" density="3.92" laneDensity="0.98" occupancy="0.43" waitingTime="0.00" speed="19.12" departed="0" arrived="0" entered="3" left="0" laneChangedFrom="1" laneChangedTo="1"/>
    </interval>
    <interval begin="50.00" end="60.00" id="1i">
        <edge id="1i" sampledSeconds="71.00" traveltime="36.93" overlapTraveltime="37.27" density="14.60" laneDensity="3.65" occupancy="1.64" waitingTime="18.00" speed="13.17" departed="1" arrived="0" entered="0" left="2" laneChangedFrom="3" laneChangedTo="3"/>
        <edge id="1o" sampledSeconds="36.82" traveltime="24.32" overlapTraveltime="24.55" density="7.57" laneDensity="1.89" occupancy="0.85" waitingTime="0.00" speed="20.00" departed="0" arrived="1" entered="2" left="0" laneChangedFrom="0" laneChangedTo="0"/>
        <edge id="2i" sampledSeconds="69.00" traveltime="38.56" overlapTraveltime="38.92" density="14.19" laneDensity="3.55" occupancy="1.60" waitingTime="19.00" speed="12.61" departed="1" arrived="0" entered="0" left="2" laneChangedFrom="1" laneChangedTo="1"/>
        <edge id="2o" sampledSeconds="26.52" traveltime="27.28" overlapTraveltime="27.50" density="5.45" laneDensity="1.36" occupancy="0.59" waitingTime="0.00" speed="17.85" departed="0" arrived="1" entered="4" left="0" laneChangedFrom="0" laneChangedTo="0"/>
        <edge id="3i" sampledSeconds="54.06" traveltime="27.99" overlapTraveltime="28.23" density="11.12" laneDensity="2.78" occupancy="1.25" waitingTime="3.00" speed="17.39" departed="1" arrived="0" entered="0" left="1" laneChangedFrom="0" laneChangedTo="0"/>
        <edge id="3o" sampledSeconds="42.11" traveltime="24.32" overlapTraveltime="24.55" density="8.66" laneDensity="2.16" occupancy="0.97" waitingTime="0.00" speed="20.00" departed="0" arrived="0" entered="1" left="0" laneChangedFrom="0" laneChangedTo="0"/>
        <edge id="4i" sampledSeconds="77.10" traveltime="41.04" overlapTraveltime="41.25" density="15.85" laneDensity="3.96" occupancy="1.78" waitingTime="0.00" speed="11.90" departed="1" arrived="0" entered="0" left="2" laneChangedFrom="1" laneChangedTo="1"/>
        <edg</meandata>
mpledSeconds="57.80" traveltime="25.79" overlapTraveltime="26.03" density="11.88" laneDensity="2.97" occupancy="1.32" waitingTime="0.00" speed="18.86" departed="0" arrived="0" entered="2" left="0" laneChangedFrom="0" laneChangedTo="0"/>
    </interval>
    <interval begin="60.00" end="61.00" id="1i">
        <edge id="1i" sampledSeconds="7.00" traveltime="35.22" overlapTraveltime="35.54" density="14.39" laneDensity="3.60" occupancy="1.62" waitingTime="2.00" speed="13.81" departed="0" arrived="0" entered="0" left="0" laneChangedFrom="0" laneChangedTo="0"/>
        <edge id="1o" sampledSeconds="4.00" traveltime="24.32" overlapTraveltime="24.54" density="8.22" laneDensity="2.06" occupancy="0.93" waitingTime="0.00" speed="20.00" departed="0" arrived="0" entered="0" left="0" laneChangedFrom="0" laneChangedTo="0"/>
        <edge id="2i" sampledSeconds="7.00" traveltime="47.22" overlapTraveltime="47.66" density="14.39" laneDensity="3.60" occupancy="1.62" waitingTime="3.00" speed="10.30" departed="0" arrived="0" entered="0" left="0" laneChangedFrom="0" laneChangedTo="0"/>
        <edge id="2o" sampledSeconds="4.00" traveltime="24.32" overlapTraveltime="24.54" density="8.22" laneDensity="2.06" occupancy="0.93" waitingTime="0.00" speed="20.00" departed="0" arrived="0" entered="0" left="0" laneChangedFrom="0" laneChangedTo="0"/>
        <edge id="3i" sampledSeconds="6.00" traveltime="33.42" overlapTraveltime="33.58" density="12.34" laneDensity="3.08" occupancy="1.39" waitingTime="1.00" speed="14.62" departed="0" arrived="0" entered="0" left="1" laneChangedFrom="0" laneChangedTo="0"/>
        <edge id="3o" sampledSeconds="5.00" traveltime="24.32" overlapTraveltime="24.55" density="10.28" laneDensity="2.57" occupancy="1.16" waitingTime="0.00" speed="20.00" departed="0" arrived="0" entered="0" left="0" laneChangedFrom="0" laneChangedTo="0"/>
        <edge id="4i" sampledSeconds="7.00" traveltime="42.99" overlapTraveltime="43.39" density="14.39" laneDensity="3.60" occupancy="1.62" waitingTime="0.00" speed="11.31" departed="0" arrived="0" entered="0" left="0" laneChangedFrom="0" laneChangedTo="0"/>
        <edge id="4o" sampledSeconds="6.00" traveltime="24.32" overlapTraveltime="24.54" density="12.34" laneDensity="3.08" occupancy="1.39" waitingTime="0.00" speed="20.00" departed="0" arrived="0" entered="0" left="0" laneChangedFrom="0" laneChangedTo="0"/>
    </interval>
</meandata>
