<?xml version="1.0" encoding="UTF-8"?>

<!-- generated on Wed Mar 17 00:00:55 2021 by Eclipse SUMO Version 1.6.0
<configuration xmlns:xsi="http://www.w3.org/2001/XMLSchema-instance" xsi:noNamespaceSchemaLocation="http://sumo.dlr.de/xsd/sumoConfiguration.xsd">

    <input>
        <net-file value="sumo/intersection.net.xml"/>
        <route-files value="sumo/inter.rou.xml"/>
        <additional-files value="sumo/intersection.add.xml"/>
    </input>

    <output>
        <summary-output value="sumo/summary.xml"/>
    </output>

    <time>
        <begin value="0"/>
        <end value="120"/>
    </time>

    <processing>
        <collision.action value="teleport"/>
        <collision.stoptime value="2"/>
        <collision.check-junctions value="true"/>
        <time-to-teleport value="120"/>
    </processing>

    <traci_server>
        <remote-port value="55962"/>
    </traci_server>

    <random_number>
        <random value="true"/>
    </random_number>

</configuration>
-->

<meandata xmlns:xsi="http://www.w3.org/2001/XMLSchema-instance" xsi:noNamespaceSchemaLocation="http://sumo.dlr.de/xsd/meandata_file.xsd">
    <interval begin="0.00" end="60.00" id="1i">
        <edge id="1i" sampledSeconds="911.48" traveltime="31.81" overlapTraveltime="32.15" density="31.23" laneDensity="7.81" occupancy="3.51" waitingTime="87.00" speed="15.27" departed="39" arrived="0" entered="0" left="20" laneChangedFrom="28" laneChangedTo="28"/>
        <edge id="1o" sampledSeconds="215.72" traveltime="24.32" overlapTraveltime="24.54" density="7.39" laneDensity="1.85" occupancy="0.83" waitingTime="0.00" speed="20.00" departed="0" arrived="2" entered="17" left="0" laneChangedFrom="0" laneChangedTo="1"/>
        <edge id="2i" sampledSeconds="890.30" traveltime="32.14" overlapTraveltime="32.43" density="30.51" laneDensity="7.63" occupancy="3.43" waitingTime="95.00" speed="15.14" departed="38" arrived="0" entered="0" left="17" laneChangedFrom="10" laneChangedTo="10"/>
        <edge id="2o" sampledSeconds="170.56" traveltime="25.24" overlapTraveltime="25.47" density="5.84" laneDensity="1.46" occupancy="0.65" waitingTime="0.00" speed="19.27" departed="0" arrived="2" entered="18" left="0" laneChangedFrom="1" laneChangedTo="1"/>
        <edge id="3i" sampledSeconds="857.17" traveltime="30.73" overlapTraveltime="31.07" density="29.37" laneDensity="7.34" occupancy="3.30" waitingTime="74.00" speed="15.80" departed="38" arrived="0" entered="0" left="20" laneChangedFrom="8" laneChangedTo="8"/>
        <edge id="3o" sampledSeconds="143.24" traveltime="24.40" overlapTraveltime="24.62" density="4.91" laneDensity="1.23" occupancy="0.55" waitingTime="0.00" speed="19.94" departed="0" arrived="0" entered="14" left="0" laneChangedFrom="0" laneChangedTo="0"/>
        <edge id="4i" sampledSeconds="1059.01" traveltime="45.59" overlapTraveltime="45.99" density="36.29" laneDensity="9.07" occupancy="4.07" waitingTime="11.00" speed="10.67" departed="38" arrived="0" entered="0" left="13" laneChangedFrom="17" laneChangedTo="17"/>
        <edge id="4o" sampledSeconds="245.27" traveltime="25.12" overlapTraveltime="25.35" density="8.40" laneDensity="2.10" occupancy="0.93" waitingTime="0.00" speed="19.36" departed="0" arrived="0" entered="19" left="2" laneChangedFrom="1" laneChangedTo="2" vaporized="2"/</meandata>
rval>
    <interval begin="60.00" end="61.00" id="1i">
        <edge id="1i" sampledSeconds="19.00" traveltime="29.80" overlapTraveltime="30.07" density="39.06" laneDensity="9.77" occupancy="4.39" waitingTime="1.00" speed="16.32" departed="0" arrived="0" entered="0" left="0" laneChangedFrom="0" laneChangedTo="0"/>
        <edge id="1o" sampledSeconds="13.00" traveltime="24.32" overlapTraveltime="24.54" density="26.73" laneDensity="6.68" occupancy="3.01" waitingTime="0.00" speed="20.00" departed="0" arrived="0" entered="0" left="0" laneChangedFrom="0" laneChangedTo="0"/>
        <edge id="2i" sampledSeconds="21.00" traveltime="34.11" overlapTraveltime="34.43" density="43.17" laneDensity="10.79" occupancy="4.86" waitingTime="4.00" speed="14.26" departed="0" arrived="0" entered="0" left="0" laneChangedFrom="1" laneChangedTo="1"/>
        <edge id="2o" sampledSeconds="16.00" traveltime="25.86" overlapTraveltime="26.09" density="32.89" laneDensity="8.22" occupancy="3.69" waitingTime="0.00" speed="18.81" departed="0" arrived="0" entered="0" left="0" laneChangedFrom="0" laneChangedTo="0"/>
        <edge id="3i" sampledSeconds="18.00" traveltime="29.49" overlapTraveltime="29.76" density="37.01" laneDensity="9.25" occupancy="4.16" waitingTime="1.00" speed="16.50" departed="0" arrived="0" entered="0" left="0" laneChangedFrom="0" laneChangedTo="0"/>
        <edge id="3o" sampledSeconds="12.00" traveltime="24.32" overlapTraveltime="24.54" density="24.67" laneDensity="6.17" occupancy="2.78" waitingTime="0.00" speed="20.00" departed="0" arrived="0" entered="0" left="0" laneChangedFrom="0" laneChangedTo="0"/>
        <edge id="4i" sampledSeconds="24.74" traveltime="47.27" overlapTraveltime="47.30" density="50.86" laneDensity="12.72" occupancy="5.70" waitingTime="0.00" speed="10.38" departed="0" arrived="0" entered="0" left="1" laneChangedFrom="2" laneChangedTo="2"/>
        <edge id="4o" sampledSeconds="12.02" traveltime="25.89" overlapTraveltime="26.06" density="24.72" laneDensity="6.18" occupancy="2.69" waitingTime="0.00" speed="18.84" departed="0" arrived="0" entered="1" left="0" laneChangedFrom="0" laneChangedTo="0"/>
    </interval>
</meandata>
