<?xml version="1.0" encoding="UTF-8"?>

<!-- generated on Tue Apr 20 16:37:19 2021 by Eclipse SUMO Version 1.6.0
<configuration xmlns:xsi="http://www.w3.org/2001/XMLSchema-instance" xsi:noNamespaceSchemaLocation="http://sumo.dlr.de/xsd/sumoConfiguration.xsd">

    <input>
        <net-file value="sumo/intersection.net.xml"/>
        <route-files value="sumo/inter.rou.xml"/>
        <additional-files value="sumo/intersection.add.xml"/>
    </input>

    <output>
        <summary-output value="sumo/summary.xml"/>
    </output>

    <time>
        <begin value="0"/>
        <end value="120"/>
    </time>

    <processing>
        <collision.action value="teleport"/>
        <collision.stoptime value="2"/>
        <collision.check-junctions value="true"/>
        <time-to-teleport value="120"/>
    </processing>

    <traci_server>
        <remote-port value="63322"/>
    </traci_server>

</configuration>
-->

<meandata xmlns:xsi="http://www.w3.org/2001/XMLSchema-instance" xsi:noNamespaceSchemaLocation="http://sumo.dlr.de/xsd/meandata_file.xsd">
    <interval begin="0.00" end="10.00" id="lane">
        <edge id="1i">
            <lane id="1i_2" sampledSeconds="15.00" traveltime="27.39" overlapTraveltime="27.64" density="3.08" laneDensity="3.08" occupancy="1.39" waitingTime="0.00" speed="17.76" departed="3" arrived="0" entered="0" left="0" laneChangedFrom="0" laneChangedTo="0"/>
            <lane id="1i_3" sampledSeconds="10.00" traveltime="27.21" overlapTraveltime="27.46" density="2.06" laneDensity="2.06" occupancy="0.93" waitingTime="0.00" speed="17.87" departed="2" arrived="0" entered="0" left="0" laneChangedFrom="0" laneChangedTo="0"/>
        </edge>
        <edge id="2i">
            <lane id="2i_1" sampledSeconds="15.00" traveltime="31.73" overlapTraveltime="32.02" density="3.08" laneDensity="3.08" occupancy="1.39" waitingTime="0.00" speed="15.33" departed="3" arrived="0" entered="0" left="0" laneChangedFrom="0" laneChangedTo="0"/>
            <lane id="2i_3" sampledSeconds="10.00" traveltime="44.04" overlapTraveltime="44.45" density="2.06" laneDensity="2.06" occupancy="0.93" waitingTime="0.00" speed="11.04" departed="2" arrived="0" entered="0" left="0" laneChangedFrom="0" laneChangedTo="0"/>
        </edge>
        <edge id="3i">
            <lane id="3i_1" sampledSeconds="15.00" traveltime="47.30" overlapTraveltime="47.74" density="3.08" laneDensity="3.08" occupancy="1.39" waitingTime="0.00" speed="10.28" departed="3" arrived="0" entered="0" left="0" laneChangedFrom="0" laneChangedTo="0"/>
            <lane id="3i_3" sampledSeconds="10.00" traveltime="29.02" overlapTraveltime="29.29" density="2.06" laneDensity="2.06" occupancy="0.93" waitingTime="0.00" speed="16.76" departed="2" arrived="0" entered="0" left="0" laneChangedFrom="0" laneChangedTo="0"/>
        </edge>
        <edge id="4i">
            <lane id="4i_1" sampledSeconds="15.00" traveltime="52.39" overlapTraveltime="52.88" density="3.08" laneDensity="3.08" occupancy="1.39" waitingTime="0.00" speed="9.28" departed="3" arrived="0" entered="0" left="0" laneChangedFrom="0" laneChangedTo="0"/>
            <lane id="4i_3" sampledSeconds="10.00" traveltime="43.70" overlapTraveltime="44.10" density="2.06" laneDensity="2.06" occupancy="0.93" waitingTime="0.00" speed="11.13" departed="2" arrived="0" entered="0" left="0" laneChangedFrom="0" laneChangedTo="0"/>
        </edge>
    </interval>
    <interval begin="10.00" end="20.00" id="lane">
        <edge id="1i">
            <lane id="1i_1" sampledSeconds="10.00" traveltime="25.36" overlapTraveltime="25.59" density="2.06" laneDensity="2.06" occupancy="0.93" waitingTime="0.00" speed="19.18" departed="0" arrived="0" entered="0" left="0" laneChangedFrom="0" laneChangedTo="2"/>
            <lane id="1i_2" sampledSeconds="30.00" traveltime="27.49" overlapTraveltime="27.74" density="6.17" laneDensity="6.17" occupancy="2.78" waitingTime="0.00" speed="17.70" departed="2" arrived="0" entered="0" left="0" laneChangedFrom="2" laneChangedTo="0"/>
            <lane id="1i_3" sampledSeconds="23.00" traveltime="27.98" overlapTraveltime="28.24" density="4.73" laneDensity="4.73" occupancy="2.13" waitingTime="0.00" speed="17.38" departed="1" arrived="0" entered="0" left="0" laneChangedFrom="0" laneChangedTo="0"/>
        </edge>
        <edge id="2i">
            <lane id="2i_1" sampledSeconds="40.00" traveltime="27.71" overlapTraveltime="27.97" density="8.22" laneDensity="8.22" occupancy="3.70" waitingTime="0.00" speed="17.55" departed="2" arrived="0" entered="0" left="0" laneChangedFrom="0" laneChangedTo="0"/>
            <lane id="2i_3" sampledSeconds="23.00" traveltime="29.27" overlapTraveltime="29.54" density="4.73" laneDensity="4.73" occupancy="2.13" waitingTime="0.00" speed="16.62" departed="1" arrived="0" entered="0" left="0" laneChangedFrom="0" laneChangedTo="0"/>
        </edge>
        <edge id="3i">
            <lane id="3i_1" sampledSeconds="40.00" traveltime="28.73" overlapTraveltime="29.00" density="8.22" laneDensity="8.22" occupancy="3.70" waitingTime="0.00" speed="16.93" departed="2" arrived="0" entered="0" left="0" laneChangedFrom="0" laneChangedTo="0"/>
            <lane id="3i_3" sampledSeconds="23.00" traveltime="30.45" overlapTraveltime="30.73" density="4.73" laneDensity="4.73" occupancy="2.13" waitingTime="0.00" speed="15.97" departed="1" arrived="0" entered="0" left="0" laneChangedFrom="0" laneChangedTo="0"/>
        </edge>
        <edge id="4i">
            <lane id="4i_1" sampledSeconds="40.00" traveltime="47.23" overlapTraveltime="47.67" density="8.22" laneDensity="8.22" occupancy="3.70" waitingTime="0.00" speed="10.30" departed="2" arrived="0" entered="0" left="0" laneChangedFrom="0" laneChangedTo="0"/>
            <lane id="4i_2" sampledSeconds="8.00" traveltime="42.34" overlapTraveltime="42.73" density="1.64" laneDensity="1.64" occupancy="0.74" waitingTime="0.00" speed="11.49" departed="0" arrived="0" entered="0" left="0" laneChangedFrom="0" laneChangedTo="1"/>
            <lane id="4i_3" sampledSeconds="15.00" traveltime="42.28" overlapTraveltime="42.67" density="3.08" laneDensity="3.08" occupancy="1.39" waitingTime="0.00" speed="11.50" departed="1" arrived="0" entered="0" left="0" laneChangedFrom="1" laneChangedTo="0"/>
        </edge>
    </interval>
    <interval begin="20.00" end="30.00" id="lane">
        <edge id="1i">
            <lane id="1i_1" sampledSeconds="36.59" traveltime="25.35" overlapTraveltime="25.58" density="7.52" laneDensity="7.52" occupancy="3.37" waitingTime="0.00" speed="19.19" departed="0" arrived="0" entered="0" left="1" laneChangedFrom="0" laneChangedTo="3"/>
            <lane id="1i_2" sampledSeconds="25.00" traveltime="26.77" overlapTraveltime="27.02" density="5.14" laneDensity="5.14" occupancy="2.31" waitingTime="0.00" speed="18.17" departed="3" arrived="0" entered="0" left="0" laneChangedFrom="3" laneChangedTo="0"/>
            <lane id="1i_3" sampledSeconds="35.00" traveltime="28.65" overlapTraveltime="28.92" density="7.20" laneDensity="7.20" occupancy="3.24" waitingTime="1.00" speed="16.97" departed="1" arrived="0" entered="0" left="0" laneChangedFrom="0" laneChangedTo="0"/>
        </edge>
        <edge id="1o">
            <lane id="1o_1" sampledSeconds="2.00" traveltime="25.20" overlapTraveltime="25.43" density="0.41" laneDensity="0.41" occupancy="0.17" waitingTime="0.00" speed="19.30" departed="0" arrived="0" entered="1" left="0" laneChangedFrom="0" laneChangedTo="0"/>
        </edge>
        <edge id="2i">
            <lane id="2i_1" sampledSeconds="61.82" traveltime="25.79" overlapTraveltime="26.03" density="12.71" laneDensity="12.71" occupancy="5.71" waitingTime="0.00" speed="18.86" departed="3" arrived="0" entered="0" left="1" laneChangedFrom="0" laneChangedTo="0"/>
            <lane id="2i_3" sampledSeconds="35.00" traveltime="26.53" overlapTraveltime="26.77" density="7.20" laneDensity="7.20" occupancy="3.24" waitingTime="0.00" speed="18.34" departed="1" arrived="0" entered="0" left="0" laneChangedFrom="0" laneChangedTo="0"/>
        </edge>
        <edge id="2o">
            <lane id="2o_1" sampledSeconds="2.20" traveltime="25.94" overlapTraveltime="26.18" density="0.45" laneDensity="0.45" occupancy="0.19" waitingTime="0.00" speed="18.75" departed="0" arrived="0" entered="1" left="0" laneChangedFrom="0" laneChangedTo="0"/>
        </edge>
        <edge id="3i">
            <lane id="3i_1" sampledSeconds="65.00" traveltime="29.10" overlapTraveltime="29.37" density="13.36" laneDensity="13.36" occupancy="6.01" waitingTime="0.00" speed="16.72" departed="3" arrived="0" entered="0" left="0" laneChangedFrom="0" laneChangedTo="0"/>
            <lane id="3i_3" sampledSeconds="35.00" traveltime="28.84" overlapTraveltime="29.11" density="7.20" laneDensity="7.20" occupancy="3.24" waitingTime="1.00" speed="16.86" departed="1" arrived="0" entered="0" left="0" laneChangedFrom="0" laneChangedTo="0"/>
        </edge>
        <edge id="4i">
            <lane id="4i_1" sampledSeconds="56.00" traveltime="46.36" overlapTraveltime="46.79" density="11.51" laneDensity="11.51" occupancy="5.18" waitingTime="0.00" speed="10.49" departed="3" arrived="0" entered="0" left="0" laneChangedFrom="1" laneChangedTo="0"/>
            <lane id="4i_2" sampledSeconds="18.00" traveltime="42.04" overlapTraveltime="42.43" density="3.70" laneDensity="3.70" occupancy="1.67" waitingTime="0.00" speed="11.57" departed="0" arrived="0" entered="0" left="0" laneChangedFrom="1" laneChangedTo="2"/>
            <lane id="4i_3" sampledSeconds="26.00" traveltime="41.30" overlapTraveltime="41.68" density="5.35" laneDensity="5.35" occupancy="2.41" waitingTime="0.00" speed="11.78" departed="1" arrived="0" entered="0" left="0" laneChangedFrom="1" laneChangedTo="1"/>
        </edge>
    </interval>
    <interval begin="30.00" end="40.00" id="lane">
        <edge id="1i">
            <lane id="1i_1" sampledSeconds="30.00" traveltime="36.52" overlapTraveltime="36.86" density="6.17" laneDensity="6.17" occupancy="2.78" waitingTime="6.00" speed="13.32" departed="0" arrived="0" entered="0" left="0" laneChangedFrom="3" laneChangedTo="1"/>
            <lane id="1i_2" sampledSeconds="50.00" traveltime="30.17" overlapTraveltime="30.45" density="10.28" laneDensity="10.28" occupancy="4.63" waitingTime="4.00" speed="16.12" departed="2" arrived="0" entered="0" left="0" laneChangedFrom="1" laneChangedTo="3"/>
            <lane id="1i_3" sampledSeconds="41.66" traveltime="29.50" overlapTraveltime="30.88" density="8.56" laneDensity="8.56" occupancy="3.77" waitingTime="4.00" speed="15.90" departed="1" arrived="0" entered="0" left="2" laneChangedFrom="0" laneChangedTo="0"/>
        </edge>
        <edge id="1o">
            <lane id="1o_1" sampledSeconds="10.00" traveltime="25.21" overlapTraveltime="25.45" density="2.06" laneDensity="2.06" occupancy="0.93" waitingTime="0.00" speed="19.29" departed="0" arrived="0" entered="0" left="0" laneChangedFrom="0" laneChangedTo="0"/>
        </edge>
        <edge id="2i">
            <lane id="2i_1" sampledSeconds="73.00" traveltime="32.28" overlapTraveltime="32.58" density="15.01" laneDensity="15.01" occupancy="6.75" waitingTime="6.00" speed="15.07" departed="2" arrived="0" entered="0" left="0" laneChangedFrom="2" laneChangedTo="0"/>
            <lane id="2i_2" sampledSeconds="7.00" traveltime="46.48" overlapTraveltime="46.91" density="1.44" laneDensity="1.44" occupancy="0.65" waitingTime="0.00" speed="10.47" departed="0" arrived="0" entered="0" left="0" laneChangedFrom="0" laneChangedTo="2"/>
            <lane id="2i_3" sampledSeconds="41.10" traveltime="32.84" overlapTraveltime="34.16" density="8.45" laneDensity="8.45" occupancy="3.73" waitingTime="2.00" speed="14.37" departed="1" arrived="0" entered="0" left="2" laneChangedFrom="0" laneChangedTo="0"/>
        </edge>
        <edge id="2o">
            <lane id="2o_1" sampledSeconds="10.00" traveltime="25.32" overlapTraveltime="25.55" density="2.06" laneDensity="2.06" occupancy="0.93" waitingTime="0.00" speed="19.21" departed="0" arrived="0" entered="0" left="0" laneChangedFrom="0" laneChangedTo="0"/>
        </edge>
        <edge id="3i">
            <lane id="3i_1" sampledSeconds="67.00" traveltime="32.85" overlapTraveltime="33.15" density="13.77" laneDensity="13.77" occupancy="6.20" waitingTime="9.00" speed="14.81" departed="2" arrived="0" entered="0" left="0" laneChangedFrom="4" laneChangedTo="0"/>
            <lane id="3i_2" sampledSeconds="23.00" traveltime="42.44" overlapTraveltime="42.84" density="4.73" laneDensity="4.73" occupancy="2.13" waitingTime="5.00" speed="11.46" departed="0" arrived="0" entered="0" left="0" laneChangedFrom="0" laneChangedTo="4"/>
            <lane id="3i_3" sampledSeconds="47.00" traveltime="35.79" overlapTraveltime="36.12" density="9.66" laneDensity="9.66" occupancy="4.35" waitingTime="10.00" speed="13.59" departed="1" arrived="0" entered="0" left="0" laneChangedFrom="0" laneChangedTo="0"/>
        </edge>
        <edge id="4i">
            <lane id="4i_1" sampledSeconds="80.00" traveltime="46.64" overlapTraveltime="47.07" density="16.45" laneDensity="16.45" occupancy="7.40" waitingTime="0.00" speed="10.43" departed="2" arrived="0" entered="0" left="0" laneChangedFrom="0" laneChangedTo="0"/>
            <lane id="4i_2" sampledSeconds="20.00" traveltime="42.30" overlapTraveltime="42.69" density="4.11" laneDensity="4.11" occupancy="1.85" waitingTime="0.00" speed="11.50" departed="0" arrived="0" entered="0" left="0" laneChangedFrom="0" laneChangedTo="0"/>
            <lane id="4i_3" sampledSeconds="37.00" traveltime="43.03" overlapTraveltime="43.43" density="7.61" laneDensity="7.61" occupancy="3.42" waitingTime="0.00" speed="11.30" departed="1" arrived="0" entered="0" left="0" laneChangedFrom="0" laneChangedTo="0"/>
        </edge>
        <edge id="4o">
            <lane id="4o_2" sampledSeconds="0.23" traveltime="56.41" overlapTraveltime="56.93" density="0.05" laneDensity="0.05" occupancy="0.00" waitingTime="0.00" speed="8.62" departed="0" arrived="0" entered="1" left="0" laneChangedFrom="0" laneChangedTo="0"/>
        </edge>
    </interval>
    <interval begin="40.00" end="50.00" id="lane">
        <edge id="1i">
            <lane id="1i_1" sampledSeconds="32.00" traveltime="39.88" overlapTraveltime="40.25" density="6.58" laneDensity="6.58" occupancy="2.96" waitingTime="10.00" speed="12.20" departed="0" arrived="0" entered="0" left="0" laneChangedFrom="2" laneChangedTo="4"/>
            <lane id="1i_2" sampledSeconds="73.00" traveltime="45.10" overlapTraveltime="45.52" density="15.01" laneDensity="15.01" occupancy="6.75" waitingTime="18.00" speed="10.79" departed="3" arrived="0" entered="0" left="0" laneChangedFrom="4" laneChangedTo="2"/>
            <lane id="1i_3" sampledSeconds="40.00" traveltime="34.40" overlapTraveltime="34.72" density="8.22" laneDensity="8.22" occupancy="3.70" waitingTime="4.00" speed="14.14" departed="2" arrived="0" entered="0" left="0" laneChangedFrom="0" laneChangedTo="0"/>
        </edge>
        <edge id="1o">
            <lane id="1o_1" sampledSeconds="10.00" traveltime="25.26" overlapTraveltime="25.49" density="2.06" laneDensity="2.06" occupancy="0.93" waitingTime="0.00" speed="19.26" departed="0" arrived="0" entered="0" left="0" laneChangedFrom="0" laneChangedTo="0"/>
        </edge>
        <edge id="2i">
            <lane id="2i_1" sampledSeconds="79.00" traveltime="38.96" overlapTraveltime="39.32" density="16.24" laneDensity="16.24" occupancy="7.31" waitingTime="19.00" speed="12.48" departed="3" arrived="0" entered="0" left="0" laneChangedFrom="2" laneChangedTo="0"/>
            <lane id="2i_2" sampledSeconds="26.00" traveltime="80.02" overlapTraveltime="80.76" density="5.35" laneDensity="5.35" occupancy="2.41" waitingTime="14.00" speed="6.08" departed="0" arrived="0" entered="0" left="0" laneChangedFrom="0" laneChangedTo="2"/>
            <lane id="2i_3" sampledSeconds="40.00" traveltime="30.30" overlapTraveltime="30.58" density="8.22" laneDensity="8.22" occupancy="3.70" waitingTime="3.00" speed="16.05" departed="2" arrived="0" entered="0" left="0" laneChangedFrom="0" laneChangedTo="0"/>
        </edge>
        <edge id="2o">
            <lane id="2o_1" sampledSeconds="10.00" traveltime="25.21" overlapTraveltime="25.45" density="2.06" laneDensity="2.06" occupancy="0.93" waitingTime="0.00" speed="19.29" departed="0" arrived="0" entered="0" left="0" laneChangedFrom="0" laneChangedTo="0"/>
        </edge>
        <edge id="3i">
            <lane id="3i_1" sampledSeconds="66.00" traveltime="39.91" overlapTraveltime="40.28" density="13.57" laneDensity="13.57" occupancy="6.11" waitingTime="14.00" speed="12.19" departed="3" arrived="0" entered="0" left="0" laneChangedFrom="2" laneChangedTo="0"/>
            <lane id="3i_2" sampledSeconds="49.00" traveltime="63.39" overlapTraveltime="63.97" density="10.07" laneDensity="10.07" occupancy="4.53" waitingTime="16.00" speed="7.67" departed="0" arrived="0" entered="0" left="0" laneChangedFrom="0" laneChangedTo="2"/>
            <lane id="3i_3" sampledSeconds="60.00" traveltime="50.23" overlapTraveltime="50.69" density="12.34" laneDensity="12.34" occupancy="5.55" waitingTime="24.00" speed="9.68" departed="2" arrived="0" entered="0" left="0" laneChangedFrom="0" laneChangedTo="0"/>
        </edge>
        <edge id="4i">
            <lane id="4i_1" sampledSeconds="96.51" traveltime="48.13" overlapTraveltime="48.91" density="19.84" laneDensity="19.84" occupancy="8.89" waitingTime="0.00" speed="10.04" departed="3" arrived="0" entered="0" left="1" laneChangedFrom="3" laneChangedTo="1"/>
            <lane id="4i_2" sampledSeconds="18.00" traveltime="43.61" overlapTraveltime="44.01" density="3.70" laneDensity="3.70" occupancy="1.67" waitingTime="0.00" speed="11.15" departed="0" arrived="0" entered="0" left="0" laneChangedFrom="2" laneChangedTo="4"/>
            <lane id="4i_3" sampledSeconds="57.00" traveltime="50.61" overlapTraveltime="51.08" density="11.72" laneDensity="11.72" occupancy="5.27" waitingTime="5.00" speed="9.61" departed="2" arrived="0" entered="0" left="0" laneChangedFrom="1" laneChangedTo="1"/>
        </edge>
        <edge id="4o">
            <lane id="4o_2" sampledSeconds="18.03" traveltime="30.20" overlapTraveltime="30.48" density="3.71" laneDensity="3.71" occupancy="1.64" waitingTime="0.00" speed="16.11" departed="0" arrived="0" entered="1" left="0" laneChangedFrom="0" laneChangedTo="0"/>
        </edge>
    </interval>
    <interval begin="50.00" end="60.00" id="lane">
        <edge id="1i">
            <lane id="1i_1" sampledSeconds="46.00" traveltime="54.79" overlapTraveltime="55.29" density="9.46" laneDensity="9.46" occupancy="4.26" waitingTime="20.00" speed="8.88" departed="0" arrived="0" entered="0" left="0" laneChangedFrom="2" laneChangedTo="3"/>
            <lane id="1i_2" sampledSeconds="84.00" traveltime="55.47" overlapTraveltime="55.99" density="17.27" laneDensity="17.27" occupancy="7.77" waitingTime="34.00" speed="8.77" departed="2" arrived="0" entered="0" left="0" laneChangedFrom="3" laneChangedTo="2"/>
            <lane id="1i_3" sampledSeconds="53.00" traveltime="46.78" overlapTraveltime="47.21" density="10.90" laneDensity="10.90" occupancy="4.90" waitingTime="18.00" speed="10.40" departed="1" arrived="0" entered="0" left="0" laneChangedFrom="0" laneChangedTo="0"/>
        </edge>
        <edge id="1o">
            <lane id="1o_1" sampledSeconds="3.46" traveltime="25.20" overlapTraveltime="25.41" density="0.71" laneDensity="0.71" occupancy="0.31" waitingTime="0.00" speed="19.32" departed="0" arrived="1" entered="0" left="0" laneChangedFrom="0" laneChangedTo="0"/>
        </edge>
        <edge id="2i">
            <lane id="2i_1" sampledSeconds="84.00" traveltime="40.93" overlapTraveltime="41.31" density="17.27" laneDensity="17.27" occupancy="7.77" waitingTime="30.00" speed="11.88" departed="2" arrived="0" entered="0" left="0" laneChangedFrom="2" laneChangedTo="0"/>
            <lane id="2i_2" sampledSeconds="46.00" traveltime="114.91" overlapTraveltime="115.97" density="9.46" laneDensity="9.46" occupancy="4.26" waitingTime="29.00" speed="4.23" departed="0" arrived="0" entered="0" left="0" laneChangedFrom="0" laneChangedTo="2"/>
            <lane id="2i_3" sampledSeconds="53.00" traveltime="44.09" overlapTraveltime="44.50" density="10.90" laneDensity="10.90" occupancy="4.90" waitingTime="18.00" speed="11.03" departed="1" arrived="0" entered="0" left="0" laneChangedFrom="0" laneChangedTo="0"/>
        </edge>
        <edge id="2o">
            <lane id="2o_1" sampledSeconds="3.40" traveltime="25.62" overlapTraveltime="25.81" density="0.70" laneDensity="0.70" occupancy="0.30" waitingTime="0.00" speed="19.02" departed="0" arrived="1" entered="0" left="0" laneChangedFrom="0" laneChangedTo="0"/>
        </edge>
        <edge id="3i">
            <lane id="3i_1" sampledSeconds="75.00" traveltime="38.88" overlapTraveltime="39.24" density="15.42" laneDensity="15.42" occupancy="6.94" waitingTime="22.00" speed="12.51" departed="2" arrived="0" entered="0" left="0" laneChangedFrom="2" laneChangedTo="2"/>
            <lane id="3i_2" sampledSeconds="65.00" traveltime="123.02" overlapTraveltime="124.16" density="13.36" laneDensity="13.36" occupancy="6.01" waitingTime="33.00" speed="3.95" departed="0" arrived="0" entered="0" left="0" laneChangedFrom="2" laneChangedTo="2"/>
            <lane id="3i_3" sampledSeconds="73.00" traveltime="67.31" overlapTraveltime="67.93" density="15.01" laneDensity="15.01" occupancy="6.75" waitingTime="39.00" speed="7.23" departed="1" arrived="0" entered="0" left="0" laneChangedFrom="0" laneChangedTo="0"/>
        </edge>
        <edge id="4i">
            <lane id="4i_1" sampledSeconds="102.00" traveltime="49.23" overlapTraveltime="49.68" density="20.97" laneDensity="20.97" occupancy="9.44" waitingTime="3.00" speed="9.88" departed="2" arrived="0" entered="0" left="0" laneChangedFrom="0" laneChangedTo="1"/>
            <lane id="4i_2" sampledSeconds="41.00" traveltime="61.32" overlapTraveltime="61.89" density="8.43" laneDensity="8.43" occupancy="3.79" waitingTime="9.00" speed="7.93" departed="0" arrived="0" entered="0" left="0" laneChangedFrom="1" laneChangedTo="1"/>
            <lane id="4i_3" sampledSeconds="60.00" traveltime="62.36" overlapTraveltime="62.94" density="12.34" laneDensity="12.34" occupancy="5.55" waitingTime="20.00" speed="7.80" departed="1" arrived="0" entered="0" left="0" laneChangedFrom="1" laneChangedTo="0"/>
        </edge>
        <edge id="4o">
            <lane id="4o_1" sampledSeconds="3.00" traveltime="30.40" overlapTraveltime="30.68" density="0.62" laneDensity="0.62" occupancy="0.28" waitingTime="0.00" speed="16.00" departed="0" arrived="0" entered="0" left="0" laneChangedFrom="0" laneChangedTo="1"/>
            <lane id="4o_2" sampledSeconds="17.00" traveltime="26.97" overlapTraveltime="27.22" density="3.50" laneDensity="3.50" occupancy="1.57" waitingTime="0.00" speed="18.03" departed="0" arrived="0" entered="0" left="0" laneChangedFrom="1" laneChangedTo="0"/>
        </edge>
    </interval>
</meandata>
l begin="60.00" end="61.00" id="lane">
        <edge id="1i">
            <lane id="1i_1" sampledSeconds="5.00" traveltime="62.32" overlapTraveltime="62.90" density="10.28" laneDensity="10.28" occupancy="4.63" waitingTime="3.00" speed="7.80" departed="0" arrived="0" entered="0" left="0" laneChangedFrom="1" laneChangedTo="0"/>
            <lane id="1i_2" sampledSeconds="9.00" traveltime="62.84" overlapTraveltime="63.42" density="18.50" laneDensity="18.50" occupancy="8.33" waitingTime="5.00" speed="7.74" departed="0" arrived="0" entered="0" left="0" laneChangedFrom="0" laneChangedTo="1"/>
            <lane id="1i_3" sampledSeconds="6.00" traveltime="49.06" overlapTraveltime="49.52" density="12.34" laneDensity="12.34" occupancy="5.55" waitingTime="2.00" speed="9.91" departed="0" arrived="0" entered="0" left="0" laneChangedFrom="0" laneChangedTo="0"/>
        </edge>
        <edge id="2i">
            <lane id="2i_1" sampledSeconds="8.00" traveltime="41.65" overlapTraveltime="42.03" density="16.45" laneDensity="16.45" occupancy="7.40" waitingTime="3.00" speed="11.68" departed="0" arrived="0" entered="0" left="0" laneChangedFrom="0" laneChangedTo="0"/>
            <lane id="2i_2" sampledSeconds="6.00" traveltime="145.69" overlapTraveltime="147.03" density="12.34" laneDensity="12.34" occupancy="5.55" waitingTime="4.00" speed="3.34" departed="0" arrived="0" entered="0" left="0" laneChangedFrom="0" laneChangedTo="0"/>
            <lane id="2i_3" sampledSeconds="6.00" traveltime="49.26" overlapTraveltime="49.71" density="12.34" laneDensity="12.34" occupancy="5.55" waitingTime="2.00" speed="9.87" departed="0" arrived="0" entered="0" left="0" laneChangedFrom="0" laneChangedTo="0"/>
        </edge>
        <edge id="3i">
            <lane id="3i_1" sampledSeconds="9.00" traveltime="43.32" overlapTraveltime="43.72" density="18.50" laneDensity="18.50" occupancy="8.33" waitingTime="3.00" speed="11.23" departed="0" arrived="0" entered="0" left="0" laneChangedFrom="0" laneChangedTo="0"/>
            <lane id="3i_2" sampledSeconds="6.00" traveltime="184.71" overlapTraveltime="186.42" density="12.34" laneDensity="12.34" occupancy="5.55" waitingTime="4.00" speed="2.63" departed="0" arrived="0" entered="0" left="0" laneChangedFrom="0" laneChangedTo="0"/>
            <lane id="3i_3" sampledSeconds="8.00" traveltime="74.83" overlapTraveltime="75.52" density="16.45" laneDensity="16.45" occupancy="7.40" waitingTime="4.00" speed="6.50" departed="0" arrived="0" entered="0" left="0" laneChangedFrom="0" laneChangedTo="0"/>
        </edge>
        <edge id="4i">
            <lane id="4i_1" sampledSeconds="12.00" traveltime="52.12" overlapTraveltime="52.60" density="24.67" laneDensity="24.67" occupancy="11.10" waitingTime="1.00" speed="9.33" departed="0" arrived="0" entered="0" left="0" laneChangedFrom="0" laneChangedTo="0"/>
            <lane id="4i_2" sampledSeconds="4.00" traveltime="65.00" overlapTraveltime="65.60" density="8.22" laneDensity="8.22" occupancy="3.70" waitingTime="1.00" speed="7.48" departed="0" arrived="0" entered="0" left="0" laneChangedFrom="0" laneChangedTo="0"/>
            <lane id="4i_3" sampledSeconds="6.00" traveltime="61.26" overlapTraveltime="61.82" density="12.34" laneDensity="12.34" occupancy="5.55" waitingTime="2.00" speed="7.94" departed="0" arrived="0" entered="0" left="0" laneChangedFrom="0" laneChangedTo="0"/>
        </edge>
        <edge id="4o">
            <lane id="4o_1" sampledSeconds="1.00" traveltime="31.76" overlapTraveltime="32.06" density="2.06" laneDensity="2.06" occupancy="0.93" waitingTime="0.00" speed="15.31" departed="0" arrived="0" entered="0" left="0" laneChangedFrom="0" laneChangedTo="0"/>
            <lane id="4o_2" sampledSeconds="1.00" traveltime="25.70" overlapTraveltime="25.94" density="2.06" laneDensity="2.06" occupancy="0.93" waitingTime="0.00" speed="18.93" departed="0" arrived="0" entered="0" left="0" laneChangedFrom="0" laneChangedTo="0"/>
        </edge>
    </interval>
</meandata>
