<?xml version="1.0" encoding="UTF-8"?>

<!-- generated on Wed Mar 17 13:13:59 2021 by Eclipse SUMO Version 1.6.0
<configuration xmlns:xsi="http://www.w3.org/2001/XMLSchema-instance" xsi:noNamespaceSchemaLocation="http://sumo.dlr.de/xsd/sumoConfiguration.xsd">

    <input>
        <net-file value="sumo/intersection.net.xml"/>
        <route-files value="sumo/inter.rou.xml"/>
        <additional-files value="sumo/intersection.add.xml"/>
    </input>

    <output>
        <summary-output value="sumo/summary.xml"/>
    </output>

    <time>
        <begin value="0"/>
        <end value="120"/>
    </time>

    <processing>
        <collision.action value="teleport"/>
        <collision.stoptime value="2"/>
        <collision.check-junctions value="true"/>
        <time-to-teleport value="120"/>
    </processing>

    <traci_server>
        <remote-port value="58154"/>
    </traci_server>

    <random_number>
        <random value="true"/>
    </random_number>

</configuration>
-->

<meandata xmlns:xsi="http://www.w3.org/2001/XMLSchema-instance" xsi:noNamespaceSchemaLocation="http://sumo.dlr.de/xsd/meandata_file.xsd">
    <interval begin="0.00" end="10.00" id="lane">
        <edge id="1i">
            <lane id="1i_1" sampledSeconds="2.00" traveltime="25.30" overlapTraveltime="25.53" density="0.41" laneDensity="0.41" occupancy="0.19" waitingTime="0.00" speed="19.22" departed="0" arrived="0" entered="0" left="0" laneChangedFrom="0" laneChangedTo="1"/>
            <lane id="1i_2" sampledSeconds="11.00" traveltime="34.48" overlapTraveltime="34.80" density="2.26" laneDensity="2.26" occupancy="1.02" waitingTime="0.00" speed="14.11" departed="2" arrived="0" entered="0" left="0" laneChangedFrom="1" laneChangedTo="0"/>
            <lane id="1i_3" sampledSeconds="9.00" traveltime="25.19" overlapTraveltime="25.43" density="1.85" laneDensity="1.85" occupancy="0.83" waitingTime="0.00" speed="19.31" departed="1" arrived="0" entered="0" left="0" laneChangedFrom="0" laneChangedTo="0"/>
        </edge>
        <edge id="2i">
            <lane id="2i_1" sampledSeconds="13.00" traveltime="29.66" overlapTraveltime="29.94" density="2.67" laneDensity="2.67" occupancy="1.20" waitingTime="0.00" speed="16.40" departed="2" arrived="0" entered="0" left="0" laneChangedFrom="0" laneChangedTo="0"/>
            <lane id="2i_3" sampledSeconds="9.00" traveltime="31.55" overlapTraveltime="31.84" density="1.85" laneDensity="1.85" occupancy="0.83" waitingTime="0.00" speed="15.42" departed="1" arrived="0" entered="0" left="0" laneChangedFrom="0" laneChangedTo="0"/>
        </edge>
        <edge id="3i">
            <lane id="3i_1" sampledSeconds="13.00" traveltime="40.96" overlapTraveltime="41.34" density="2.67" laneDensity="2.67" occupancy="1.20" waitingTime="0.00" speed="11.88" departed="2" arrived="0" entered="0" left="0" laneChangedFrom="0" laneChangedTo="0"/>
            <lane id="3i_3" sampledSeconds="9.00" traveltime="25.65" overlapTraveltime="25.88" density="1.85" laneDensity="1.85" occupancy="0.83" waitingTime="0.00" speed="18.97" departed="1" arrived="0" entered="0" left="0" laneChangedFrom="0" laneChangedTo="0"/>
        </edge>
        <edge id="4i">
            <lane id="4i_1" sampledSeconds="13.00" traveltime="46.28" overlapTraveltime="46.70" density="2.67" laneDensity="2.67" occupancy="1.20" waitingTime="0.00" speed="10.51" departed="2" arrived="0" entered="0" left="0" laneChangedFrom="0" laneChangedTo="0"/>
            <lane id="4i_2" sampledSeconds="1.00" traveltime="50.03" overlapTraveltime="50.49" density="0.21" laneDensity="0.21" occupancy="0.09" waitingTime="0.00" speed="9.72" departed="0" arrived="0" entered="0" left="0" laneChangedFrom="0" laneChangedTo="1"/>
            <lane id="4i_3" sampledSeconds="8.00" traveltime="50.57" overlapTraveltime="51.04" density="1.64" laneDensity="1.64" occupancy="0.74" waitingTime="0.00" speed="9.62" departed="1" arrived="0" entered="0" left="0" laneChangedFrom="1" laneChangedTo="0"/>
        </edge>
    </interval>
    <interval begin="10.00" end="20.00" id="lane">
        <edge id="1i">
            <lane id="1i_1" sampledSeconds="10.00" traveltime="25.06" overlapTraveltime="25.29" density="2.06" laneDensity="2.06" occupancy="0.93" waitingTime="0.00" speed="19.41" departed="0" arrived="0" entered="0" left="0" laneChangedFrom="0" laneChangedTo="0"/>
            <lane id="1i_2" sampledSeconds="23.00" traveltime="26.33" overlapTraveltime="26.57" density="4.73" laneDensity="4.73" occupancy="2.13" waitingTime="0.00" speed="18.48" departed="2" arrived="0" entered="0" left="0" laneChangedFrom="0" laneChangedTo="0"/>
            <lane id="1i_3" sampledSeconds="19.00" traveltime="28.41" overlapTraveltime="28.68" density="3.91" laneDensity="3.91" occupancy="1.76" waitingTime="0.00" speed="17.12" departed="1" arrived="0" entered="0" left="0" laneChangedFrom="0" laneChangedTo="0"/>
        </edge>
        <edge id="2i">
            <lane id="2i_1" sampledSeconds="33.00" traveltime="27.43" overlapTraveltime="27.68" density="6.78" laneDensity="6.78" occupancy="3.05" waitingTime="0.00" speed="17.73" departed="2" arrived="0" entered="0" left="0" laneChangedFrom="0" laneChangedTo="0"/>
            <lane id="2i_3" sampledSeconds="19.00" traveltime="26.09" overlapTraveltime="26.33" density="3.91" laneDensity="3.91" occupancy="1.76" waitingTime="0.00" speed="18.65" departed="1" arrived="0" entered="0" left="0" laneChangedFrom="0" laneChangedTo="0"/>
        </edge>
        <edge id="3i">
            <lane id="3i_1" sampledSeconds="33.00" traveltime="26.22" overlapTraveltime="26.46" density="6.78" laneDensity="6.78" occupancy="3.05" waitingTime="0.00" speed="18.55" departed="2" arrived="0" entered="0" left="0" laneChangedFrom="0" laneChangedTo="0"/>
            <lane id="3i_3" sampledSeconds="19.00" traveltime="27.28" overlapTraveltime="27.54" density="3.91" laneDensity="3.91" occupancy="1.76" waitingTime="0.00" speed="17.83" departed="1" arrived="0" entered="0" left="0" laneChangedFrom="0" laneChangedTo="0"/>
        </edge>
        <edge id="4i">
            <lane id="4i_1" sampledSeconds="33.00" traveltime="42.82" overlapTraveltime="43.22" density="6.78" laneDensity="6.78" occupancy="3.05" waitingTime="0.00" speed="11.36" departed="2" arrived="0" entered="0" left="0" laneChangedFrom="0" laneChangedTo="0"/>
            <lane id="4i_2" sampledSeconds="10.00" traveltime="46.00" overlapTraveltime="46.43" density="2.06" laneDensity="2.06" occupancy="0.93" waitingTime="0.00" speed="10.57" departed="0" arrived="0" entered="0" left="0" laneChangedFrom="0" laneChangedTo="0"/>
            <lane id="4i_3" sampledSeconds="9.00" traveltime="38.04" overlapTraveltime="38.39" density="1.85" laneDensity="1.85" occupancy="0.83" waitingTime="0.00" speed="12.79" departed="1" arrived="0" entered="0" left="0" laneChangedFrom="0" laneChangedTo="0"/>
        </edge>
    </interval>
    <interval begin="20.00" end="30.00" id="lane">
        <edge id="1i">
            <lane id="1i_1" sampledSeconds="21.06" traveltime="25.16" overlapTraveltime="25.38" density="4.33" laneDensity="4.33" occupancy="1.94" waitingTime="0.00" speed="19.34" departed="0" arrived="0" entered="0" left="1" laneChangedFrom="0" laneChangedTo="3"/>
            <lane id="1i_2" sampledSeconds="31.00" traveltime="26.74" overlapTraveltime="26.99" density="6.37" laneDensity="6.37" occupancy="2.87" waitingTime="0.00" speed="18.19" departed="2" arrived="0" entered="0" left="0" laneChangedFrom="3" laneChangedTo="0"/>
            <lane id="1i_3" sampledSeconds="29.00" traveltime="34.29" overlapTraveltime="34.61" density="5.96" laneDensity="5.96" occupancy="2.68" waitingTime="5.00" speed="14.18" departed="1" arrived="0" entered="0" left="0" laneChangedFrom="0" laneChangedTo="0"/>
        </edge>
        <edge id="1o">
            <lane id="1o_1" sampledSeconds="2.59" traveltime="24.32" overlapTraveltime="24.55" density="0.53" laneDensity="0.53" occupancy="0.23" waitingTime="0.00" speed="20.00" departed="0" arrived="0" entered="1" left="0" laneChangedFrom="0" laneChangedTo="0"/>
        </edge>
        <edge id="2i">
            <lane id="2i_1" sampledSeconds="49.27" traveltime="25.65" overlapTraveltime="25.88" density="10.13" laneDensity="10.13" occupancy="4.55" waitingTime="0.00" speed="18.97" departed="2" arrived="0" entered="0" left="1" laneChangedFrom="0" laneChangedTo="0"/>
            <lane id="2i_3" sampledSeconds="29.00" traveltime="29.18" overlapTraveltime="29.45" density="5.96" laneDensity="5.96" occupancy="2.68" waitingTime="3.00" speed="16.67" departed="1" arrived="0" entered="0" left="0" laneChangedFrom="0" laneChangedTo="0"/>
        </edge>
        <edge id="3i">
            <lane id="3i_1" sampledSeconds="53.00" traveltime="25.88" overlapTraveltime="26.12" density="10.90" laneDensity="10.90" occupancy="4.90" waitingTime="1.00" speed="18.80" departed="2" arrived="0" entered="0" left="0" laneChangedFrom="0" laneChangedTo="0"/>
            <lane id="3i_3" sampledSeconds="29.00" traveltime="31.26" overlapTraveltime="31.55" density="5.96" laneDensity="5.96" occupancy="2.68" waitingTime="4.00" speed="15.56" departed="1" arrived="0" entered="0" left="0" laneChangedFrom="0" laneChangedTo="0"/>
        </edge>
        <edge id="4i">
            <lane id="4i_1" sampledSeconds="53.00" traveltime="41.62" overlapTraveltime="42.01" density="10.90" laneDensity="10.90" occupancy="4.90" waitingTime="0.00" speed="11.69" departed="2" arrived="0" entered="0" left="0" laneChangedFrom="0" laneChangedTo="0"/>
            <lane id="4i_2" sampledSeconds="6.00" traveltime="47.32" overlapTraveltime="47.76" density="1.23" laneDensity="1.23" occupancy="0.56" waitingTime="0.00" speed="10.28" departed="0" arrived="0" entered="0" left="0" laneChangedFrom="1" laneChangedTo="0"/>
            <lane id="4i_3" sampledSeconds="23.00" traveltime="40.05" overlapTraveltime="40.42" density="4.73" laneDensity="4.73" occupancy="2.13" waitingTime="0.00" speed="12.14" departed="1" arrived="0" entered="0" left="0" laneChangedFrom="0" laneChangedTo="1"/>
        </edge>
    </interval>
    <interval begin="30.00" end="40.00" id="lane">
        <edge id="1i">
            <lane id="1i_1" sampledSeconds="36.17" traveltime="28.22" overlapTraveltime="28.46" density="7.44" laneDensity="7.44" occupancy="3.34" waitingTime="4.00" speed="17.25" departed="0" arrived="0" entered="0" left="1" laneChangedFrom="1" laneChangedTo="3"/>
            <lane id="1i_2" sampledSeconds="18.00" traveltime="37.18" overlapTraveltime="37.53" density="3.70" laneDensity="3.70" occupancy="1.67" waitingTime="0.00" speed="13.08" departed="2" arrived="0" entered="0" left="0" laneChangedFrom="3" laneChangedTo="1"/>
            <lane id="1i_3" sampledSeconds="32.50" traveltime="29.91" overlapTraveltime="31.06" density="6.68" laneDensity="6.68" occupancy="2.95" waitingTime="4.00" speed="15.80" departed="1" arrived="0" entered="0" left="2" laneChangedFrom="0" laneChangedTo="0"/>
        </edge>
        <edge id="1o">
            <lane id="1o_0" sampledSeconds="0.00" departed="0" arrived="0" entered="2" left="0" laneChangedFrom="0" laneChangedTo="0"/>
            <lane id="1o_1" sampledSeconds="15.76" traveltime="24.32" overlapTraveltime="24.54" density="3.24" laneDensity="3.24" occupancy="1.45" waitingTime="0.00" speed="20.00" departed="0" arrived="0" entered="1" left="0" laneChangedFrom="0" laneChangedTo="0"/>
        </edge>
        <edge id="2i">
            <lane id="2i_1" sampledSeconds="56.11" traveltime="29.21" overlapTraveltime="29.45" density="11.54" laneDensity="11.54" occupancy="5.18" waitingTime="5.00" speed="16.67" departed="2" arrived="0" entered="0" left="1" laneChangedFrom="0" laneChangedTo="0"/>
            <lane id="2i_3" sampledSeconds="30.99" traveltime="30.62" overlapTraveltime="31.83" density="6.37" laneDensity="6.37" occupancy="2.81" waitingTime="4.00" speed="15.42" departed="1" arrived="0" entered="0" left="2" laneChangedFrom="0" laneChangedTo="0"/>
        </edge>
        <edge id="2o">
            <lane id="2o_1" sampledSeconds="17.49" traveltime="24.32" overlapTraveltime="24.54" density="3.60" laneDensity="3.60" occupancy="1.60" waitingTime="0.00" speed="20.00" departed="0" arrived="0" entered="2" left="0" laneChangedFrom="0" laneChangedTo="0"/>
        </edge>
        <edge id="3i">
            <lane id="3i_1" sampledSeconds="48.00" traveltime="28.70" overlapTraveltime="28.96" density="9.87" laneDensity="9.87" occupancy="4.44" waitingTime="5.00" speed="16.95" departed="2" arrived="0" entered="0" left="1" laneChangedFrom="3" laneChangedTo="1"/>
            <lane id="3i_2" sampledSeconds="19.00" traveltime="58.76" overlapTraveltime="59.31" density="3.91" laneDensity="3.91" occupancy="1.76" waitingTime="11.00" speed="8.28" departed="0" arrived="0" entered="0" left="1" laneChangedFrom="1" laneChangedTo="3"/>
            <lane id="3i_3" sampledSeconds="39.00" traveltime="38.20" overlapTraveltime="38.55" density="8.02" laneDensity="8.02" occupancy="3.61" waitingTime="13.00" speed="12.73" departed="1" arrived="0" entered="0" left="2" laneChangedFrom="0" laneChangedTo="0"/>
        </edge>
        <edge id="3o">
            <lane id="3o_3" sampledSeconds="4.72" traveltime="32.46" overlapTraveltime="32.76" density="0.97" laneDensity="0.97" occupancy="0.41" waitingTime="0.00" speed="14.98" departed="0" arrived="0" entered="2" left="0" laneChangedFrom="0" laneChangedTo="0"/>
        </edge>
        <edge id="4i">
            <lane id="4i_1" sampledSeconds="71.00" traveltime="42.57" overlapTraveltime="42.96" density="14.60" laneDensity="14.60" occupancy="6.57" waitingTime="0.00" speed="11.43" departed="2" arrived="0" entered="0" left="0" laneChangedFrom="1" laneChangedTo="0"/>
            <lane id="4i_2" sampledSeconds="6.00" traveltime="40.97" overlapTraveltime="41.35" density="1.23" laneDensity="1.23" occupancy="0.56" waitingTime="0.00" speed="11.87" departed="0" arrived="0" entered="0" left="0" laneChangedFrom="1" laneChangedTo="2"/>
            <lane id="4i_3" sampledSeconds="35.00" traveltime="42.27" overlapTraveltime="42.67" density="7.20" laneDensity="7.20" occupancy="3.24" waitingTime="0.00" speed="11.51" departed="1" arrived="0" entered="0" left="0" laneChangedFrom="1" laneChangedTo="1"/>
        </edge>
        <edge id="4o">
            <lane id="4o_0" sampledSeconds="6.00" traveltime="24.32" overlapTraveltime="24.54" density="1.23" laneDensity="1.23" occupancy="0.56" waitingTime="0.00" speed="20.00" departed="0" arrived="0" entered="2" left="0" laneChangedFrom="0" laneChangedTo="0"/>
            <lane id="4o_2" sampledSeconds="2.86" traveltime="28.80" overlapTraveltime="29.07" density="0.59" laneDensity="0.59" occupancy="0.24" waitingTime="0.00" speed="16.89" departed="0" arrived="0" entered="2" left="0" laneChangedFrom="0" laneChangedTo="0"/>
        </edge>
    </interval>
    <interval begin="40.00" end="50.00" id="lane">
        <edge id="1i">
            <lane id="1i_1" sampledSeconds="33.00" traveltime="36.33" overlapTraveltime="36.67" density="6.78" laneDensity="6.78" occupancy="3.05" waitingTime="10.00" speed="13.39" departed="0" arrived="0" entered="0" left="0" laneChangedFrom="2" laneChangedTo="1"/>
            <lane id="1i_2" sampledSeconds="38.00" traveltime="44.24" overlapTraveltime="44.65" density="7.81" laneDensity="7.81" occupancy="3.52" waitingTime="11.00" speed="10.99" departed="2" arrived="0" entered="0" left="2" laneChangedFrom="1" laneChangedTo="2"/>
            <lane id="1i_3" sampledSeconds="29.00" traveltime="27.07" overlapTraveltime="27.32" density="5.96" laneDensity="5.96" occupancy="2.68" waitingTime="2.00" speed="17.97" departed="1" arrived="0" entered="0" left="0" laneChangedFrom="0" laneChangedTo="0"/>
        </edge>
        <edge id="1o">
            <lane id="1o_0" sampledSeconds="22.00" traveltime="24.32" overlapTraveltime="24.54" density="4.52" laneDensity="4.52" occupancy="2.04" waitingTime="0.00" speed="20.00" departed="0" arrived="0" entered="2" left="0" laneChangedFrom="0" laneChangedTo="0"/>
            <lane id="1o_1" sampledSeconds="20.00" traveltime="24.32" overlapTraveltime="24.55" density="4.11" laneDensity="4.11" occupancy="1.85" waitingTime="0.00" speed="20.00" departed="0" arrived="0" entered="0" left="0" laneChangedFrom="0" laneChangedTo="0"/>
        </edge>
        <edge id="2i">
            <lane id="2i_1" sampledSeconds="57.00" traveltime="33.78" overlapTraveltime="34.09" density="11.72" laneDensity="11.72" occupancy="5.27" waitingTime="12.00" speed="14.40" departed="2" arrived="0" entered="0" left="2" laneChangedFrom="2" laneChangedTo="0"/>
            <lane id="2i_2" sampledSeconds="14.00" traveltime="49.26" overlapTraveltime="49.72" density="2.88" laneDensity="2.88" occupancy="1.30" waitingTime="7.00" speed="9.87" departed="0" arrived="0" entered="0" left="0" laneChangedFrom="0" laneChangedTo="2"/>
            <lane id="2i_3" sampledSeconds="29.00" traveltime="30.58" overlapTraveltime="30.86" density="5.96" laneDensity="5.96" occupancy="2.68" waitingTime="4.00" speed="15.91" departed="1" arrived="0" entered="0" left="0" laneChangedFrom="0" laneChangedTo="0"/>
        </edge>
        <edge id="2o">
            <lane id="2o_0" sampledSeconds="2.00" traveltime="24.32" overlapTraveltime="24.54" density="0.41" laneDensity="0.41" occupancy="0.19" waitingTime="0.00" speed="20.00" departed="0" arrived="0" entered="2" left="0" laneChangedFrom="0" laneChangedTo="0"/>
            <lane id="2o_1" sampledSeconds="20.00" traveltime="24.32" overlapTraveltime="24.55" density="4.11" laneDensity="4.11" occupancy="1.85" waitingTime="0.00" speed="20.00" departed="0" arrived="0" entered="0" left="0" laneChangedFrom="0" laneChangedTo="0"/>
            <lane id="2o_3" sampledSeconds="4.61" traveltime="24.32" overlapTraveltime="24.54" density="0.95" laneDensity="0.95" occupancy="0.41" waitingTime="0.00" speed="20.00" departed="0" arrived="0" entered="2" left="0" laneChangedFrom="0" laneChangedTo="0"/>
        </edge>
        <edge id="3i">
            <lane id="3i_1" sampledSeconds="47.00" traveltime="28.68" overlapTraveltime="28.95" density="9.66" laneDensity="9.66" occupancy="4.35" waitingTime="3.00" speed="16.96" departed="2" arrived="0" entered="0" left="1" laneChangedFrom="1" laneChangedTo="0"/>
            <lane id="3i_2" sampledSeconds="15.00" traveltime="37.28" overlapTraveltime="39.66" density="3.08" laneDensity="3.08" occupancy="1.34" waitingTime="4.00" speed="12.38" departed="0" arrived="0" entered="0" left="1" laneChangedFrom="0" laneChangedTo="1"/>
            <lane id="3i_3" sampledSeconds="29.00" traveltime="28.10" overlapTraveltime="28.36" density="5.96" laneDensity="5.96" occupancy="2.68" waitingTime="3.00" speed="17.31" departed="1" arrived="0" entered="0" left="0" laneChangedFrom="0" laneChangedTo="0"/>
        </edge>
        <edge id="3o">
            <lane id="3o_1" sampledSeconds="1.23" traveltime="33.70" overlapTraveltime="34.01" density="0.25" laneDensity="0.25" occupancy="0.10" waitingTime="0.00" speed="14.43" departed="0" arrived="0" entered="1" left="0" laneChangedFrom="0" laneChangedTo="0"/>
            <lane id="3o_3" sampledSeconds="11.00" traveltime="24.54" overlapTraveltime="24.77" density="2.26" laneDensity="2.26" occupancy="1.02" waitingTime="0.00" speed="19.82" departed="0" arrived="0" entered="0" left="1" laneChangedFrom="0" laneChangedTo="0" vaporized="1"/>
        </edge>
        <edge id="4i">
            <lane id="4i_1" sampledSeconds="77.16" traveltime="45.71" overlapTraveltime="46.52" density="15.86" laneDensity="15.86" occupancy="7.08" waitingTime="4.00" speed="10.55" departed="2" arrived="0" entered="0" left="2" laneChangedFrom="1" laneChangedTo="0"/>
            <lane id="4i_2" sampledSeconds="21.00" traveltime="39.01" overlapTraveltime="39.37" density="4.32" laneDensity="4.32" occupancy="1.94" waitingTime="0.00" speed="12.47" departed="0" arrived="0" entered="0" left="0" laneChangedFrom="1" laneChangedTo="2"/>
            <lane id="4i_3" sampledSeconds="33.39" traveltime="36.88" overlapTraveltime="36.97" density="6.87" laneDensity="6.87" occupancy="3.07" waitingTime="0.00" speed="13.28" departed="1" arrived="0" entered="0" left="2" laneChangedFrom="1" laneChangedTo="1"/>
        </edge>
        <edge id="4o">
            <lane id="4o_0" sampledSeconds="27.00" traveltime="24.32" overlapTraveltime="24.54" density="5.55" laneDensity="5.55" occupancy="2.50" waitingTime="0.00" speed="20.00" departed="0" arrived="0" entered="1" left="0" laneChangedFrom="0" laneChangedTo="0"/>
            <lane id="4o_2" sampledSeconds="20.00" traveltime="24.32" overlapTraveltime="24.55" density="4.11" laneDensity="4.11" occupancy="1.85" waitingTime="0.00" speed="20.00" departed="0" arrived="0" entered="0" left="0" laneChangedFrom="0" laneChangedTo="0"/>
        </edge>
    </interval>
    <interval begin="50.00" end="60.00" id="lane">
        <edge id="1i">
            <lane id="1i_1" sampledSeconds="39.00" traveltime="33.93" overlapTraveltime="34.25" density="8.02" laneDensity="8.02" occupancy="3.61" waitingTime="10.00" speed="14.33" departed="0" arrived="0" entered="0" left="0" laneChangedFrom="2" laneChangedTo="2"/>
            <lane id="1i_2" sampledSeconds="34.00" traveltime="35.19" overlapTraveltime="35.52" density="6.99" laneDensity="6.99" occupancy="3.15" waitingTime="8.00" speed="13.82" departed="2" arrived="0" entered="0" left="0" laneChangedFrom="2" laneChangedTo="2"/>
            <lane id="1i_3" sampledSeconds="39.00" traveltime="45.30" overlapTraveltime="45.72" density="8.02" laneDensity="8.02" occupancy="3.61" waitingTime="13.00" speed="10.74" departed="1" arrived="0" entered="0" left="2" laneChangedFrom="0" laneChangedTo="0"/>
        </edge>
        <edge id="1o">
            <lane id="1o_0" sampledSeconds="54.00" traveltime="24.32" overlapTraveltime="24.54" density="11.10" laneDensity="11.10" occupancy="5.00" waitingTime="0.00" speed="20.00" departed="0" arrived="0" entered="4" left="0" laneChangedFrom="0" laneChangedTo="0"/>
            <lane id="1o_1" sampledSeconds="10.74" traveltime="24.32" overlapTraveltime="24.54" density="2.21" laneDensity="2.21" occupancy="0.97" waitingTime="0.00" speed="20.00" departed="0" arrived="2" entered="0" left="0" laneChangedFrom="0" laneChangedTo="0"/>
        </edge>
        <edge id="2i">
            <lane id="2i_1" sampledSeconds="43.00" traveltime="26.23" overlapTraveltime="26.47" density="8.84" laneDensity="8.84" occupancy="3.98" waitingTime="0.00" speed="18.55" departed="2" arrived="0" entered="0" left="0" laneChangedFrom="2" laneChangedTo="0"/>
            <lane id="2i_2" sampledSeconds="18.00" traveltime="55.19" overlapTraveltime="55.70" density="3.70" laneDensity="3.70" occupancy="1.67" waitingTime="9.00" speed="8.81" departed="0" arrived="0" entered="0" left="2" laneChangedFrom="0" laneChangedTo="2"/>
            <lane id="2i_</meandata>
conds="39.00" traveltime="44.37" overlapTraveltime="44.78" density="8.02" laneDensity="8.02" occupancy="3.61" waitingTime="13.00" speed="10.96" departed="1" arrived="0" entered="0" left="2" laneChangedFrom="0" laneChangedTo="0"/>
        </edge>
        <edge id="2o">
            <lane id="2o_0" sampledSeconds="20.00" traveltime="24.32" overlapTraveltime="24.55" density="4.11" laneDensity="4.11" occupancy="1.85" waitingTime="0.00" speed="20.00" departed="0" arrived="0" entered="0" left="0" laneChangedFrom="0" laneChangedTo="0"/>
            <lane id="2o_1" sampledSeconds="11.60" traveltime="24.32" overlapTraveltime="24.54" density="2.38" laneDensity="2.38" occupancy="1.05" waitingTime="0.00" speed="20.00" departed="0" arrived="2" entered="0" left="0" laneChangedFrom="0" laneChangedTo="0"/>
            <lane id="2o_3" sampledSeconds="20.18" traveltime="24.32" overlapTraveltime="24.54" density="4.15" laneDensity="4.15" occupancy="1.86" waitingTime="0.00" speed="20.00" departed="0" arrived="0" entered="1" left="0" laneChangedFrom="0" laneChangedTo="0"/>
        </edge>
        <edge id="3i">
            <lane id="3i_1" sampledSeconds="51.87" traveltime="25.32" overlapTraveltime="25.55" density="10.66" laneDensity="10.66" occupancy="4.79" waitingTime="0.00" speed="19.22" departed="2" arrived="0" entered="0" left="2" laneChangedFrom="0" laneChangedTo="0"/>
            <lane id="3i_2" sampledSeconds="10.00" traveltime="24.32" overlapTraveltime="24.55" density="2.06" laneDensity="2.06" occupancy="0.93" waitingTime="0.00" speed="20.00" departed="0" arrived="0" entered="0" left="0" laneChangedFrom="0" laneChangedTo="0"/>
            <lane id="3i_3" sampledSeconds="37.00" traveltime="42.29" overlapTraveltime="42.68" density="7.61" laneDensity="7.61" occupancy="3.42" waitingTime="12.00" speed="11.50" departed="1" arrived="0" entered="0" left="2" laneChangedFrom="0" laneChangedTo="0"/>
        </edge>
        <edge id="3o">
            <lane id="3o_0" sampledSeconds="0.00" departed="0" arrived="0" entered="2" left="0" laneChangedFrom="0" laneChangedTo="0"/>
            <lane id="3o_1" sampledSeconds="25.71" traveltime="24.41" overlapTraveltime="24.64" density="5.29" laneDensity="5.29" occupancy="2.36" waitingTime="0.00" speed="19.92" departed="0" arrived="0" entered="2" left="0" laneChangedFrom="0" laneChangedTo="0"/>
            <lane id="3o_2" sampledSeconds="8.11" traveltime="24.32" overlapTraveltime="24.54" density="1.67" laneDensity="1.67" occupancy="0.74" waitingTime="0.00" speed="20.00" departed="0" arrived="0" entered="1" left="0" laneChangedFrom="0" laneChangedTo="0"/>
            <lane id="3o_3" sampledSeconds="10.00" traveltime="24.32" overlapTraveltime="24.55" density="2.06" laneDensity="2.06" occupancy="0.93" waitingTime="0.00" speed="20.00" departed="0" arrived="0" entered="0" left="0" laneChangedFrom="0" laneChangedTo="0"/>
        </edge>
        <edge id="4i">
            <lane id="4i_1" sampledSeconds="65.11" traveltime="43.34" overlapTraveltime="43.62" density="13.39" laneDensity="13.39" occupancy="6.01" waitingTime="0.00" speed="11.25" departed="2" arrived="0" entered="0" left="1" laneChangedFrom="0" laneChangedTo="0"/>
            <lane id="4i_2" sampledSeconds="13.75" traveltime="41.55" overlapTraveltime="41.45" density="2.83" laneDensity="2.83" occupancy="1.26" waitingTime="0.00" speed="11.84" departed="0" arrived="0" entered="0" left="1" laneChangedFrom="0" laneChangedTo="1"/>
            <lane id="4i_3" sampledSeconds="34.82" traveltime="41.06" overlapTraveltime="41.25" density="7.16" laneDensity="7.16" occupancy="3.21" waitingTime="0.00" speed="11.90" departed="1" arrived="0" entered="0" left="1" laneChangedFrom="1" laneChangedTo="0"/>
        </edge>
        <edge id="4o">
            <lane id="4o_0" sampledSeconds="29.32" traveltime="24.32" overlapTraveltime="24.55" density="6.03" laneDensity="6.03" occupancy="2.70" waitingTime="0.00" speed="20.00" departed="0" arrived="0" entered="2" left="0" laneChangedFrom="0" laneChangedTo="0"/>
            <lane id="4o_2" sampledSeconds="28.70" traveltime="24.32" overlapTraveltime="24.54" density="5.90" laneDensity="5.90" occupancy="2.63" waitingTime="0.00" speed="20.00" departed="0" arrived="0" entered="2" left="0" laneChangedFrom="0" laneChangedTo="0"/>
        </edge>
    </interval>
    <interval begin="60.00" end="61.00" id="lane">
        <edge id="1i">
            <lane id="1i_1" sampledSeconds="3.00" traveltime="37.29" overlapTraveltime="37.63" density="6.17" laneDensity="6.17" occupancy="2.78" waitingTime="1.00" speed="13.05" departed="0" arrived="0" entered="0" left="0" laneChangedFrom="0" laneChangedTo="0"/>
            <lane id="1i_2" sampledSeconds="5.00" traveltime="41.95" overlapTraveltime="42.33" density="10.28" laneDensity="10.28" occupancy="4.63" waitingTime="2.00" speed="11.60" departed="0" arrived="0" entered="0" left="0" laneChangedFrom="0" laneChangedTo="0"/>
            <lane id="1i_3" sampledSeconds="2.00" traveltime="25.49" overlapTraveltime="25.73" density="4.11" laneDensity="4.11" occupancy="1.85" waitingTime="0.00" speed="19.08" departed="0" arrived="0" entered="0" left="0" laneChangedFrom="0" laneChangedTo="0"/>
        </edge>
        <edge id="1o">
            <lane id="1o_0" sampledSeconds="8.00" traveltime="24.32" overlapTraveltime="24.54" density="16.45" laneDensity="16.45" occupancy="7.40" waitingTime="0.00" speed="20.00" departed="0" arrived="0" entered="0" left="0" laneChangedFrom="0" laneChangedTo="0"/>
        </edge>
        <edge id="2i">
            <lane id="2i_1" sampledSeconds="4.00" traveltime="25.29" overlapTraveltime="25.52" density="8.22" laneDensity="8.22" occupancy="3.70" waitingTime="0.00" speed="19.23" departed="0" arrived="0" entered="0" left="0" laneChangedFrom="0" laneChangedTo="1"/>
            <lane id="2i_2" sampledSeconds="2.00" traveltime="48.64" overlapTraveltime="49.09" density="4.11" laneDensity="4.11" occupancy="1.85" waitingTime="1.00" speed="10.00" departed="0" arrived="0" entered="0" left="0" laneChangedFrom="1" laneChangedTo="0"/>
            <lane id="2i_3" sampledSeconds="2.00" traveltime="25.15" overlapTraveltime="25.38" density="4.11" laneDensity="4.11" occupancy="1.85" waitingTime="0.00" speed="19.34" departed="0" arrived="0" entered="0" left="0" laneChangedFrom="0" laneChangedTo="0"/>
        </edge>
        <edge id="2o">
            <lane id="2o_0" sampledSeconds="2.00" traveltime="24.32" overlapTraveltime="24.54" density="4.11" laneDensity="4.11" occupancy="1.85" waitingTime="0.00" speed="20.00" departed="0" arrived="0" entered="0" left="0" laneChangedFrom="0" laneChangedTo="0"/>
            <lane id="2o_3" sampledSeconds="3.00" traveltime="24.32" overlapTraveltime="24.54" density="6.17" laneDensity="6.17" occupancy="2.77" waitingTime="0.00" speed="20.00" departed="0" arrived="0" entered="0" left="0" laneChangedFrom="0" laneChangedTo="0"/>
        </edge>
        <edge id="3i">