<?xml version="1.0" encoding="UTF-8"?>

<!-- generated on Tue Apr 20 14:36:01 2021 by Eclipse SUMO Version 1.6.0
<configuration xmlns:xsi="http://www.w3.org/2001/XMLSchema-instance" xsi:noNamespaceSchemaLocation="http://sumo.dlr.de/xsd/sumoConfiguration.xsd">

    <input>
        <net-file value="sumo/intersection.net.xml"/>
        <route-files value="sumo/inter.rou.xml"/>
        <additional-files value="sumo/intersection.add.xml"/>
    </input>

    <output>
        <summary-output value="sumo/summary.xml"/>
    </output>

    <time>
        <begin value="0"/>
        <end value="120"/>
    </time>

    <processing>
        <collision.action value="teleport"/>
        <collision.stoptime value="2"/>
        <collision.check-junctions value="true"/>
        <time-to-teleport value="120"/>
    </processing>

    <traci_server>
        <remote-port value="59940"/>
    </traci_server>

    <random_number>
        <random value="true"/>
    </random_number>

</configuration>
-->

<meandata xmlns:xsi="http://www.w3.org/2001/XMLSchema-instance" xsi:noNamespaceSchemaLocation="http://sumo.dlr.de/xsd/meandata_file.xsd">
    <interval begin="0.00" end="10.00" id="lane">
        <edge id="1i">
            <lane id="1i_2" sampledSeconds="15.00" traveltime="26.11" overlapTraveltime="26.35" density="3.08" laneDensity="3.08" occupancy="1.39" waitingTime="0.00" speed="18.63" departed="3" arrived="0" entered="0" left="0" laneChangedFrom="0" laneChangedTo="0"/>
            <lane id="1i_3" sampledSeconds="10.00" traveltime="25.95" overlapTraveltime="26.19" density="2.06" laneDensity="2.06" occupancy="0.93" waitingTime="0.00" speed="18.75" departed="2" arrived="0" entered="0" left="0" laneChangedFrom="0" laneChangedTo="0"/>
        </edge>
        <edge id="2i">
            <lane id="2i_1" sampledSeconds="15.00" traveltime="31.77" overlapTraveltime="32.07" density="3.08" laneDensity="3.08" occupancy="1.39" waitingTime="0.00" speed="15.31" departed="3" arrived="0" entered="0" left="0" laneChangedFrom="0" laneChangedTo="0"/>
            <lane id="2i_3" sampledSeconds="10.00" traveltime="34.47" overlapTraveltime="34.79" density="2.06" laneDensity="2.06" occupancy="0.93" waitingTime="0.00" speed="14.11" departed="2" arrived="0" entered="0" left="0" laneChangedFrom="0" laneChangedTo="0"/>
        </edge>
        <edge id="3i">
            <lane id="3i_1" sampledSeconds="15.00" traveltime="34.06" overlapTraveltime="34.37" density="3.08" laneDensity="3.08" occupancy="1.39" waitingTime="0.00" speed="14.28" departed="3" arrived="0" entered="0" left="0" laneChangedFrom="0" laneChangedTo="0"/>
            <lane id="3i_3" sampledSeconds="10.00" traveltime="34.59" overlapTraveltime="34.91" density="2.06" laneDensity="2.06" occupancy="0.93" waitingTime="0.00" speed="14.06" departed="2" arrived="0" entered="0" left="0" laneChangedFrom="0" laneChangedTo="0"/>
        </edge>
        <edge id="4i">
            <lane id="4i_1" sampledSeconds="15.00" traveltime="44.95" overlapTraveltime="45.36" density="3.08" laneDensity="3.08" occupancy="1.39" waitingTime="0.00" speed="10.82" departed="3" arrived="0" entered="0" left="0" laneChangedFrom="0" laneChangedTo="0"/>
            <lane id="4i_2" sampledSeconds="0.00" departed="0" arrived="0" entered="0" left="0" laneChangedFrom="0" laneChangedTo="1"/>
            <lane id="4i_3" sampledSeconds="10.00" traveltime="51.20" overlapTraveltime="51.67" density="2.06" laneDensity="2.06" occupancy="0.93" waitingTime="0.00" speed="9.50" departed="2" arrived="0" entered="0" left="0" laneChangedFrom="1" laneChangedTo="0"/>
        </edge>
    </interval>
    <interval begin="10.00" end="20.00" id="lane">
        <edge id="1i">
            <lane id="1i_1" sampledSeconds="10.00" traveltime="25.16" overlapTraveltime="25.39" density="2.06" laneDensity="2.06" occupancy="0.93" waitingTime="0.00" speed="19.33" departed="0" arrived="0" entered="0" left="0" laneChangedFrom="0" laneChangedTo="3"/>
            <lane id="1i_2" sampledSeconds="30.00" traveltime="28.26" overlapTraveltime="28.52" density="6.17" laneDensity="6.17" occupancy="2.78" waitingTime="0.00" speed="17.21" departed="2" arrived="0" entered="0" left="0" laneChangedFrom="3" laneChangedTo="0"/>
            <lane id="1i_3" sampledSeconds="23.00" traveltime="26.46" overlapTraveltime="26.71" density="4.73" laneDensity="4.73" occupancy="2.13" waitingTime="0.00" speed="18.38" departed="1" arrived="0" entered="0" left="0" laneChangedFrom="0" laneChangedTo="0"/>
        </edge>
        <edge id="2i">
            <lane id="2i_1" sampledSeconds="40.00" traveltime="27.97" overlapTraveltime="28.23" density="8.22" laneDensity="8.22" occupancy="3.70" waitingTime="0.00" speed="17.39" departed="2" arrived="0" entered="0" left="0" laneChangedFrom="0" laneChangedTo="0"/>
            <lane id="2i_3" sampledSeconds="23.00" traveltime="27.43" overlapTraveltime="27.69" density="4.73" laneDensity="4.73" occupancy="2.13" waitingTime="0.00" speed="17.73" departed="1" arrived="0" entered="0" left="0" laneChangedFrom="0" laneChangedTo="0"/>
        </edge>
        <edge id="3i">
            <lane id="3i_1" sampledSeconds="40.00" traveltime="27.61" overlapTraveltime="27.86" density="8.22" laneDensity="8.22" occupancy="3.70" waitingTime="0.00" speed="17.62" departed="2" arrived="0" entered="0" left="0" laneChangedFrom="0" laneChangedTo="0"/>
            <lane id="3i_3" sampledSeconds="23.00" traveltime="25.64" overlapTraveltime="25.87" density="4.73" laneDensity="4.73" occupancy="2.13" waitingTime="0.00" speed="18.97" departed="1" arrived="0" entered="0" left="0" laneChangedFrom="0" laneChangedTo="0"/>
        </edge>
        <edge id="4i">
            <lane id="4i_1" sampledSeconds="40.00" traveltime="44.47" overlapTraveltime="44.88" density="8.22" laneDensity="8.22" occupancy="3.70" waitingTime="0.00" speed="10.94" departed="2" arrived="0" entered="0" left="0" laneChangedFrom="0" laneChangedTo="0"/>
            <lane id="4i_2" sampledSeconds="14.00" traveltime="44.08" overlapTraveltime="44.48" density="2.88" laneDensity="2.88" occupancy="1.30" waitingTime="0.00" speed="11.04" departed="0" arrived="0" entered="0" left="0" laneChangedFrom="0" laneChangedTo="1"/>
            <lane id="4i_3" sampledSeconds="9.00" traveltime="56.00" overlapTraveltime="56.52" density="1.85" laneDensity="1.85" occupancy="0.83" waitingTime="0.00" speed="8.69" departed="1" arrived="0" entered="0" left="0" laneChangedFrom="1" laneChangedTo="0"/>
        </edge>
    </interval>
    <interval begin="20.00" end="30.00" id="lane">
        <edge id="1i">
            <lane id="1i_1" sampledSeconds="35.09" traveltime="25.05" overlapTraveltime="25.27" density="7.21" laneDensity="7.21" occupancy="3.23" waitingTime="0.00" speed="19.42" departed="0" arrived="0" entered="0" left="2" laneChangedFrom="0" laneChangedTo="1"/>
            <lane id="1i_2" sampledSeconds="26.00" traveltime="26.10" overlapTraveltime="26.34" density="5.35" laneDensity="5.35" occupancy="2.41" waitingTime="0.00" speed="18.63" departed="3" arrived="0" entered="0" left="0" laneChangedFrom="1" laneChangedTo="0"/>
            <lane id="1i_3" sampledSeconds="35.00" traveltime="29.81" overlapTraveltime="30.09" density="7.20" laneDensity="7.20" occupancy="3.24" waitingTime="5.00" speed="16.31" departed="1" arrived="0" entered="0" left="0" laneChangedFrom="0" laneChangedTo="0"/>
        </edge>
        <edge id="1o">
            <lane id="1o_1" sampledSeconds="2.05" traveltime="24.32" overlapTraveltime="24.55" density="0.42" laneDensity="0.42" occupancy="0.18" waitingTime="0.00" speed="20.00" departed="0" arrived="0" entered="1" left="0" laneChangedFrom="0" laneChangedTo="0"/>
        </edge>
        <edge id="2i">
            <lane id="2i_1" sampledSeconds="61.81" traveltime="27.81" overlapTraveltime="28.05" density="12.71" laneDensity="12.71" occupancy="5.71" waitingTime="0.00" speed="17.50" departed="3" arrived="0" entered="0" left="1" laneChangedFrom="0" laneChangedTo="0"/>
            <lane id="2i_3" sampledSeconds="35.00" traveltime="27.76" overlapTraveltime="28.01" density="7.20" laneDensity="7.20" occupancy="3.24" waitingTime="2.00" speed="17.52" departed="1" arrived="0" entered="0" left="0" laneChangedFrom="0" laneChangedTo="0"/>
        </edge>
        <edge id="2o">
            <lane id="2o_1" sampledSeconds="2.74" traveltime="24.32" overlapTraveltime="24.55" density="0.56" laneDensity="0.56" occupancy="0.24" waitingTime="0.00" speed="20.00" departed="0" arrived="0" entered="1" left="0" laneChangedFrom="0" laneChangedTo="0"/>
        </edge>
        <edge id="3i">
            <lane id="3i_1" sampledSeconds="64.00" traveltime="26.95" overlapTraveltime="27.20" density="13.16" laneDensity="13.16" occupancy="5.92" waitingTime="2.00" speed="18.05" departed="3" arrived="0" entered="0" left="0" laneChangedFrom="1" laneChangedTo="0"/>
            <lane id="3i_2" sampledSeconds="1.00" traveltime="24.32" overlapTraveltime="24.54" density="0.21" laneDensity="0.21" occupancy="0.09" waitingTime="0.00" speed="20.00" departed="0" arrived="0" entered="0" left="0" laneChangedFrom="0" laneChangedTo="1"/>
            <lane id="3i_3" sampledSeconds="35.00" traveltime="28.02" overlapTraveltime="28.28" density="7.20" laneDensity="7.20" occupancy="3.24" waitingTime="1.00" speed="17.36" departed="1" arrived="0" entered="0" left="0" laneChangedFrom="0" laneChangedTo="0"/>
        </edge>
        <edge id="4i">
            <lane id="4i_1" sampledSeconds="65.00" traveltime="43.52" overlapTraveltime="43.92" density="13.36" laneDensity="13.36" occupancy="6.01" waitingTime="0.00" speed="11.18" departed="3" arrived="0" entered="0" left="0" laneChangedFrom="0" laneChangedTo="0"/>
            <lane id="4i_2" sampledSeconds="13.00" traveltime="44.79" overlapTraveltime="45.21" density="2.67" laneDensity="2.67" occupancy="1.20" waitingTime="0.00" speed="10.86" departed="0" arrived="0" entered="0" left="0" laneChangedFrom="1" laneChangedTo="0"/>
            <lane id="4i_3" sampledSeconds="22.00" traveltime="41.32" overlapTraveltime="41.70" density="4.52" laneDensity="4.52" occupancy="2.04" waitingTime="0.00" speed="11.77" departed="1" arrived="0" entered="0" left="0" laneChangedFrom="0" laneChangedTo="1"/>
        </edge>
    </interval>
    <interval begin="30.00" end="40.00" id="lane">
        <edge id="1i">
            <lane id="1i_1" sampledSeconds="31.00" traveltime="29.79" overlapTraveltime="30.06" density="6.37" laneDensity="6.37" occupancy="2.87" waitingTime="5.00" speed="16.33" departed="0" arrived="0" entered="0" left="0" laneChangedFrom="2" laneChangedTo="4"/>
            <lane id="1i_2" sampledSeconds="39.00" traveltime="27.28" overlapTraveltime="27.53" density="8.02" laneDensity="8.02" occupancy="3.61" waitingTime="0.00" speed="17.83" departed="2" arrived="0" entered="0" left="0" laneChangedFrom="4" laneChangedTo="2"/>
            <lane id="1i_3" sampledSeconds="39.50" traveltime="29.96" overlapTraveltime="31.80" density="8.12" laneDensity="8.12" occupancy="3.55" waitingTime="6.00" speed="15.44" departed="1" arrived="0" entered="0" left="2" laneChangedFrom="0" laneChangedTo="0"/>
        </edge>
        <edge id="1o">
            <lane id="1o_0" sampledSeconds="6.00" traveltime="24.32" overlapTraveltime="24.54" density="1.23" laneDensity="1.23" occupancy="0.56" waitingTime="0.00" speed="20.00" departed="0" arrived="0" entered="2" left="0" laneChangedFrom="0" laneChangedTo="0"/>
            <lane id="1o_1" sampledSeconds="16.96" traveltime="24.32" overlapTraveltime="24.54" density="3.49" laneDensity="3.49" occupancy="1.56" waitingTime="0.00" speed="20.00" departed="0" arrived="0" entered="1" left="0" laneChangedFrom="0" laneChangedTo="0"/>
        </edge>
        <edge id="2i">
            <lane id="2i_1" sampledSeconds="69.91" traveltime="28.66" overlapTraveltime="28.91" density="14.37" laneDensity="14.37" occupancy="6.46" waitingTime="5.00" speed="16.98" departed="2" arrived="0" entered="0" left="1" laneChangedFrom="2" laneChangedTo="0"/>
            <lane id="2i_2" sampledSeconds="2.00" traveltime="48.64" overlapTraveltime="49.09" density="0.41" laneDensity="0.41" occupancy="0.19" waitingTime="1.00" speed="10.00" departed="0" arrived="0" entered="0" left="0" laneChangedFrom="0" laneChangedTo="2"/>
            <lane id="2i_3" sampledSeconds="39.50" traveltime="33.59" overlapTraveltime="35.59" density="8.12" laneDensity="8.12" occupancy="3.55" waitingTime="6.00" speed="13.79" departed="1" arrived="0" entered="0" left="2" laneChangedFrom="0" laneChangedTo="0"/>
        </edge>
        <edge id="2o">
            <lane id="2o_1" sampledSeconds="18.90" traveltime="24.32" overlapTraveltime="24.54" density="3.89" laneDensity="3.89" occupancy="1.74" waitingTime="0.00" speed="20.00" departed="0" arrived="0" entered="1" left="0" laneChangedFrom="0" laneChangedTo="0"/>
        </edge>
        <edge id="3i">
            <lane id="3i_1" sampledSeconds="66.00" traveltime="32.12" overlapTraveltime="32.42" density="13.57" laneDensity="13.57" occupancy="6.11" waitingTime="10.00" speed="15.14" departed="2" arrived="0" entered="0" left="0" laneChangedFrom="3" laneChangedTo="0"/>
            <lane id="3i_2" sampledSeconds="22.00" traveltime="75.65" overlapTraveltime="76.35" density="4.52" laneDensity="4.52" occupancy="2.04" waitingTime="14.00" speed="6.43" departed="0" arrived="0" entered="0" left="2" laneChangedFrom="0" laneChangedTo="3"/>
            <lane id="3i_3" sampledSeconds="41.00" traveltime="34.19" overlapTraveltime="34.51" density="8.43" laneDensity="8.43" occupancy="3.79" waitingTime="10.00" speed="14.23" departed="1" arrived="0" entered="0" left="2" laneChangedFrom="0" laneChangedTo="0"/>
        </edge>
        <edge id="3o">
            <lane id="3o_3" sampledSeconds="2.00" traveltime="162.13" overlapTraveltime="163.63" density="0.41" laneDensity="0.41" occupancy="0.06" waitingTime="0.00" speed="3.00" departed="0" arrived="0" entered="2" left="0" laneChangedFrom="0" laneChangedTo="0"/>
        </edge>
        <edge id="4i">
            <lane id="4i_1" sampledSeconds="86.00" traveltime="44.49" overlapTraveltime="44.91" density="17.68" laneDensity="17.68" occupancy="7.96" waitingTime="0.00" speed="10.93" departed="2" arrived="0" entered="0" left="0" laneChangedFrom="2" laneChangedTo="0"/>
            <lane id="4i_2" sampledSeconds="15.00" traveltime="45.03" overlapTraveltime="45.44" density="3.08" laneDensity="3.08" occupancy="1.39" waitingTime="0.00" speed="10.80" departed="0" arrived="0" entered="0" left="0" laneChangedFrom="1" laneChangedTo="3"/>
            <lane id="4i_3" sampledSeconds="36.00" traveltime="43.47" overlapTraveltime="43.88" density="7.40" laneDensity="7.40" occupancy="3.33" waitingTime="0.00" speed="11.19" departed="1" arrived="0" entered="0" left="0" laneChangedFrom="1" laneChangedTo="1"/>
        </edge>
        <edge id="4o">
            <lane id="4o_0" sampledSeconds="2.00" traveltime="24.32" overlapTraveltime="24.54" density="0.41" laneDensity="0.41" occupancy="0.19" waitingTime="0.00" speed="20.00" departed="0" arrived="0" entered="2" left="0" laneChangedFrom="0" laneChangedTo="0"/>
            <lane id="4o_2" sampledSeconds="1.00" traveltime="162.13" overlapTraveltime="163.63" density="0.21" laneDensity="0.21" occupancy="0.03" waitingTime="0.00" speed="3.00" departed="0" arrived="0" entered="1" left="0" laneChangedFrom="0" laneChangedTo="0"/>
        </edge>
    </interval>
    <interval begin="40.00" end="50.00" id="lane">
        <edge id="1i">
            <lane id="1i_1" sampledSeconds="37.00" traveltime="32.16" overlapTraveltime="32.46" density="7.61" laneDensity="7.61" occupancy="3.42" waitingTime="7.00" speed="15.12" departed="0" arrived="0" entered="0" left="2" laneChangedFrom="2" laneChangedTo="3"/>
            <lane id="1i_2" sampledSeconds="45.00" traveltime="40.77" overlapTraveltime="41.14" density="9.25" laneDensity="9.25" occupancy="4.16" waitingTime="13.00" speed="11.93" departed="3" arrived="0" entered="0" left="1" laneChangedFrom="3" laneChangedTo="2"/>
            <lane id="1i_3" sampledSeconds="33.41" traveltime="25.09" overlapTraveltime="25.31" density="6.87" laneDensity="6.87" occupancy="3.08" waitingTime="0.00" speed="19.39" departed="2" arrived="0" entered="0" left="1" laneChangedFrom="0" laneChangedTo="0"/>
        </edge>
        <edge id="1o">
            <lane id="1o_0" sampledSeconds="26.00" traveltime="24.32" overlapTraveltime="24.54" density="5.35" laneDensity="5.35" occupancy="2.41" waitingTime="0.00" speed="20.00" departed="0" arrived="0" entered="2" left="0" laneChangedFrom="0" laneChangedTo="0"/>
            <lane id="1o_1" sampledSeconds="20.00" traveltime="24.32" overlapTraveltime="24.55" density="4.11" laneDensity="4.11" occupancy="1.85" waitingTime="0.00" speed="20.00" departed="0" arrived="0" entered="0" left="0" laneChangedFrom="0" laneChangedTo="1"/>
        </edge>
        <edge id="2i">
            <lane id="2i_1" sampledSeconds="65.00" traveltime="32.45" overlapTraveltime="32.75" density="13.36" laneDensity="13.36" occupancy="6.01" waitingTime="10.00" speed="14.99" departed="3" arrived="0" entered="0" left="0" laneChangedFrom="3" laneChangedTo="0"/>
            <lane id="2i_2" sampledSeconds="24.00" traveltime="53.48" overlapTraveltime="53.97" density="4.93" laneDensity="4.93" occupancy="2.22" waitingTime="12.00" speed="9.10" departed="0" arrived="0" entered="0" left="2" laneChangedFrom="0" laneChangedTo="3"/>
            <lane id="2i_3" sampledSeconds="34.74" traveltime="26.93" overlapTraveltime="27.17" density="7.14" laneDensity="7.14" occupancy="3.20" waitingTime="0.00" speed="18.07" departed="2" arrived="0" entered="0" left="1" laneChangedFrom="0" laneChangedTo="0"/>
        </edge>
        <edge id="2o">
            <lane id="2o_0" sampledSeconds="13.00" traveltime="24.32" overlapTraveltime="24.54" density="2.67" laneDensity="2.67" occupancy="1.20" waitingTime="0.00" speed="20.00" departed="0" arrived="0" entered="3" left="0" laneChangedFrom="0" laneChangedTo="0"/>
            <lane id="2o_1" sampledSeconds="20.00" traveltime="24.32" overlapTraveltime="24.55" density="4.11" laneDensity="4.11" occupancy="1.85" waitingTime="0.00" speed="20.00" departed="0" arrived="0" entered="0" left="0" laneChangedFrom="0" laneChangedTo="0"/>
        </edge>
        <edge id="3i">
            <lane id="3i_1" sampledSeconds="64.25" traveltime="28.14" overlapTraveltime="28.84" density="13.21" laneDensity="13.21" occupancy="5.89" waitingTime="5.00" speed="17.02" departed="3" arrived="0" entered="0" left="1" laneChangedFrom="2" laneChangedTo="0"/>
            <lane id="3i_2" sampledSeconds="16.57" traveltime="46.88" overlapTraveltime="50.11" density="3.41" laneDensity="3.41" occupancy="1.44" waitingTime="6.00" speed="9.80" departed="0" arrived="0" entered="0" left="3" laneChangedFrom="0" laneChangedTo="2"/>
            <lane id="3i_3" sampledSeconds="40.00" traveltime="34.22" overlapTraveltime="34.54" density="8.22" laneDensity="8.22" occupancy="3.70" waitingTime="9.00" speed="14.21" departed="2" arrived="0" entered="0" left="0" laneChangedFrom="0" laneChangedTo="0"/>
        </edge>
        <edge id="3o">
            <lane id="3o_1" sampledSeconds="1.23" traveltime="33.70" overlapTraveltime="34.01" density="0.25" laneDensity="0.25" occupancy="0.10" waitingTime="0.00" speed="14.43" departed="0" arrived="0" entered="1" left="0" laneChangedFrom="0" laneChangedTo="0"/>
            <lane id="3o_2" sampledSeconds="1.33" traveltime="24.32" overlapTraveltime="24.55" density="0.27" laneDensity="0.27" occupancy="0.11" waitingTime="0.00" speed="20.00" departed="0" arrived="0" entered="1" left="0" laneChangedFrom="0" laneChangedTo="0"/>
            <lane id="3o_3" sampledSeconds="10.26" traveltime="35.85" overlapTraveltime="36.19" density="2.11" laneDensity="2.11" occupancy="0.90" waitingTime="0.00" speed="13.57" departed="0" arrived="0" entered="1" left="2" laneChangedFrom="0" laneChangedTo="0" vaporized="2"/>
        </edge>
        <edge id="4i">
            <lane id="4i_1" sampledSeconds="87.25" traveltime="46.15" overlapTraveltime="47.02" density="17.94" laneDensity="17.94" occupancy="8.02" waitingTime="4.00" speed="10.44" departed="3" arrived="0" entered="0" left="1" laneChangedFrom="2" laneChangedTo="0"/>
            <lane id="4i_2" sampledSeconds="27.53" traveltime="43.08" overlapTraveltime="43.21" density="5.66" laneDensity="5.66" occupancy="2.54" waitingTime="0.00" speed="11.36" departed="0" arrived="0" entered="0" left="1" laneChangedFrom="1" laneChangedTo="2"/>
            <lane id="4i_3" sampledSeconds="50.25" traveltime="45.43" overlapTraveltime="46.62" density="10.33" laneDensity="10.33" occupancy="4.60" waitingTime="3.00" speed="10.53" departed="2" arrived="0" entered="0" left="1" laneChangedFrom="0" laneChangedTo="1"/>
        </edge>
        <edge id="4o">
            <lane id="4o_0" sampledSeconds="20.00" traveltime="24.32" overlapTraveltime="24.55" density="4.11" laneDensity="4.11" occupancy="1.85" waitingTime="0.00" speed="20.00" departed="0" arrived="0" entered="0" left="0" laneChangedFrom="0" laneChangedTo="0"/>
            <lane id="4o_1" sampledSeconds="9.00" traveltime="31.27" overlapTraveltime="31.56" density="1.85" laneDensity="1.85" occupancy="0.83" waitingTime="0.00" speed="15.56" departed="0" arrived="0" entered="0" left="0" laneChangedFrom="0" laneChangedTo="1"/>
            <lane id="4o_2" sampledSeconds="13.65" traveltime="34.52" overlapTraveltime="34.84" density="2.81" laneDensity="2.81" occupancy="1.09" waitingTime="0.00" speed="14.09" departed="0" arrived="0" entered="5" left="1" laneChangedFrom="1" laneChangedTo="0" vaporized="1"/>
        </edge>
    </interval>
    <interval begin="50.00" end="60.00" id="lane">
        <edge id="1i">
            <lane id="1i_1" sampledSeconds="20.00" traveltime="27.99" overlapTraveltime="28.25" density="4.11" laneDensity="4.11" occupancy="1.85" waitingTime="2.00" speed="17.38" departed="0" arrived="0" entered="0" left="1" laneChangedFrom="1" laneChangedTo="1"/>
            <lane id="1i_2" sampledSeconds="58.00" traveltime="31.85" overlapTraveltime="32.14" density="11.92" laneDensity="11.92" occupancy="5.37" waitingTime="11.00" speed="15.27" departed="2" arrived="0" entered="0" left="2" laneChangedFrom="1" laneChangedTo="1"/>
            <lane id="1i_3" sampledSeconds="43.00" traveltime="39.02" overlapTraveltime="39.39" density="8.84" laneDensity="8.84" occupancy="3.98" waitingTime="12.00" speed="12.46" departed="1" arrived="0" entered="0" left="0" laneChangedFrom="0" laneChangedTo="0"/>
        </edge>
        <edge id="1o">
            <lane id="1o_0" sampledSeconds="50.00" traveltime="24.32" overlapTraveltime="24.55" density="10.28" laneDensity="10.28" occupancy="4.63" waitingTime="0.00" speed="20.00" departed="0" arrived="0" entered="4" left="0" laneChangedFrom="0" laneChangedTo="0"/>
            <lane id="1o_1" sampledSeconds="20.08" traveltime="24.32" overlapTraveltime="24.54" density="4.13" laneDensity="4.13" occupancy="1.84" waitingTime="0.00" speed="20.00" departed="0" arrived="2" entered="0" left="0" laneChangedFrom="0" laneChangedTo="0"/>
        </edge>
        <edge id="2i">
            <lane id="2i_1" sampledSeconds="59.00" traveltime="32.87" overlapTraveltime="33.18" density="12.13" laneDensity="12.13" occupancy="5.46" waitingTime="10.00" speed="14.80" departed="2" arrived="0" entered="0" left="0" laneChangedFrom="2" </meandata>
o="0"/>
            <lane id="2i_2" sampledSeconds="31.00" traveltime="45.13" overlapTraveltime="45.55" density="6.37" laneDensity="6.37" occupancy="2.87" waitingTime="13.00" speed="10.78" departed="0" arrived="0" entered="0" left="2" laneChangedFrom="0" laneChangedTo="2"/>
            <lane id="2i_3" sampledSeconds="43.00" traveltime="35.56" overlapTraveltime="35.89" density="8.84" laneDensity="8.84" occupancy="3.98" waitingTime="10.00" speed="13.68" departed="1" arrived="0" entered="0" left="0" laneChangedFrom="0" laneChangedTo="0"/>
        </edge>
        <edge id="2o">
            <lane id="2o_0" sampledSeconds="42.00" traveltime="24.32" overlapTraveltime="24.54" density="8.63" laneDensity="8.63" occupancy="3.89" waitingTime="0.00" speed="20.00" departed="0" arrived="0" entered="3" left="0" laneChangedFrom="0" laneChangedTo="0"/>
            <lane id="2o_1" sampledSeconds="7.45" traveltime="24.32" overlapTraveltime="24.54" density="1.53" laneDensity="1.53" occupancy="0.67" waitingTime="0.00" speed="20.00" departed="0" arrived="2" entered="0" left="0" laneChangedFrom="0" laneChangedTo="0"/>
            <lane id="2o_3" sampledSeconds="18.45" traveltime="28.76" overlapTraveltime="29.03" density="3.79" laneDensity="3.79" occupancy="1.62" waitingTime="0.00" speed="16.91" departed="0" arrived="0" entered="3" left="0" laneChangedFrom="0" laneChangedTo="0"/>
        </edge>
        <edge id="3i">
            <lane id="3i_1" sampledSeconds="64.33" traveltime="27.37" overlapTraveltime="27.61" density="13.23" laneDensity="13.23" occupancy="5.94" waitingTime="0.00" speed="17.78" departed="2" arrived="0" entered="0" left="1" laneChangedFrom="0" laneChangedTo="0"/>
            <lane id="3i_2" sampledSeconds="0.56" traveltime="24.32" overlapTraveltime="24.54" density="0.11" laneDensity="0.11" occupancy="0.04" waitingTime="0.00" speed="20.00" departed="0" arrived="0" entered="0" left="1" laneChangedFrom="0" laneChangedTo="0"/>
            <lane id="3i_3" sampledSeconds="43.00" traveltime="36.72" overlapTraveltime="37.06" density="8.84" laneDensity="8.84" occupancy="3.98" waitingTime="11.00" speed="13.25" departed="1" arrived="0" entered="0" left="2" laneChangedFrom="0" laneChangedTo="0"/>
        </edge>
        <edge id="3o">
            <lane id="3o_1" sampledSeconds="18.99" traveltime="24.45" overlapTraveltime="24.67" density="3.90" laneDensity="3.90" occupancy="1.74" waitingTime="0.00" speed="19.89" departed="0" arrived="0" entered="2" left="0" laneChangedFrom="0" laneChangedTo="0"/>
            <lane id="3o_2" sampledSeconds="13.26" traveltime="24.32" overlapTraveltime="24.55" density="2.73" laneDensity="2.73" occupancy="1.22" waitingTime="0.00" speed="20.00" departed="0" arrived="0" entered="1" left="0" laneChangedFrom="0" laneChangedTo="0"/>
            <lane id="3o_3" sampledSeconds="10.00" traveltime="24.32" overlapTraveltime="24.55" density="2.06" laneDensity="2.06" occupancy="0.93" waitingTime="0.00" speed="20.00" departed="0" arrived="0" entered="0" left="0" laneChangedFrom="0" laneChangedTo="0"/>
        </edge>
        <edge id="4i">
            <lane id="4i_1" sampledSeconds="79.26" traveltime="42.79" overlapTraveltime="42.91" density="16.30" laneDensity="16.30" occupancy="7.30" waitingTime="0.00" speed="11.44" departed="2" arrived="0" entered="0" left="3" laneChangedFrom="1" laneChangedTo="2"/>
            <lane id="4i_2" sampledSeconds="29.60" traveltime="38.23" overlapTraveltime="38.41" density="6.09" laneDensity="6.09" occupancy="2.73" waitingTime="0.00" speed="12.78" departed="0" arrived="0" entered="0" left="1" laneChangedFrom="3" laneChangedTo="3"/>
            <lane id="4i_3" sampledSeconds="47.55" traveltime="40.41" overlapTraveltime="40.53" density="9.78" laneDensity="9.78" occupancy="4.38" waitingTime="0.00" speed="12.11" departed="1" arrived="0" entered="0" left="2" laneChangedFrom="2" laneChangedTo="1"/>
        </edge>
        <edge id="4o">
            <lane id="4o_0" sampledSeconds="20.00" traveltime="24.32" overlapTraveltime="24.55" density="4.11" laneDensity="4.11" occupancy="1.85" waitingTime="0.00" speed="20.00" departed="0" arrived="0" entered="0" left="0" laneChangedFrom="0" laneChangedTo="0"/>
            <lane id="4o_1" sampledSeconds="24.53" traveltime="27.52" overlapTraveltime="27.77" density="5.04" laneDensity="5.04" occupancy="2.19" waitingTime="0.00" speed="17.68" departed="0" arrived="0" entered="2" left="0" laneChangedFrom="0" laneChangedTo="0"/>
            <lane id="4o_2" sampledSeconds="40.31" traveltime="25.66" overlapTraveltime="25.89" density="8.29" laneDensity="8.29" occupancy="3.71" waitingTime="0.00" speed="18.96" departed="0" arrived="0" entered="1" left="0" laneChangedFrom="1" laneChangedTo="0"/>
            <lane id="4o_3" sampledSeconds="8.00" traveltime="24.32" overlapTraveltime="24.54" density="1.64" laneDensity="1.64" occupancy="0.74" waitingTime="0.00" speed="20.00" departed="0" arrived="0" entered="0" left="0" laneChangedFrom="0" laneChangedTo="1"/>
        </edge>
    </interval>
    <interval begin="60.00" end="61.00" id="lane">
        <edge id="1i">
            <lane id="1i_1" sampledSeconds="2.00" traveltime="24.43" overlapTraveltime="24.65" density="4.11" laneDensity="4.11" occupancy="1.85" waitingTime="0.00" speed="19.91" departed="0" arrived="0" entered="0" left="0" laneChangedFrom="1" laneChangedTo="0"/>
            <lane id="1i_2" sampledSeconds="5.00" traveltime="31.69" overlapTraveltime="31.99" density="10.28" laneDensity="10.28" occupancy="4.63" waitingTime="1.00" speed="15.35" departed="0" arrived="0" entered="0" left="0" laneChangedFrom="0" laneChangedTo="1"/>
            <lane id="1i_3" sampledSeconds="5.00" traveltime="51.00" overlapTraveltime="51.47" density="10.28" laneDensity="10.28" occupancy="4.63" waitingTime="2.00" speed="9.54" departed="0" arrived="0" entered="0" left="2" laneChangedFrom="0" laneChangedTo="0"/>
        </edge>
        <edge id="1o">
            <lane id="1o_0" sampledSeconds="7.00" traveltime="24.32" overlapTraveltime="24.54" density="14.39" laneDensity="14.39" occupancy="6.48" waitingTime="0.00" speed="20.00" departed="0" arrived="0" entered="0" left="0" laneChangedFrom="0" laneChangedTo="0"/>
            <lane id="1o_1" sampledSeconds="1.00" traveltime="24.32" overlapTraveltime="24.54" density="2.06" laneDensity="2.06" occupancy="0.93" waitingTime="0.00" speed="20.00" departed="0" arrived="0" entered="0" left="0" laneChangedFrom="0" laneChangedTo="0"/>
        </edge>
        <edge id="2i">